 Entering Link 1 = C:\Program Files\G09W\l1.exe PID=      4172.
  
 Copyright (c) 1988,1990,1992,1993,1995,1998,2003,2009,2013,
            Gaussian, Inc.  All Rights Reserved.
  
 This is part of the Gaussian(R) 09 program.  It is based on
 the Gaussian(R) 03 system (copyright 2003, Gaussian, Inc.),
 the Gaussian(R) 98 system (copyright 1998, Gaussian, Inc.),
 the Gaussian(R) 94 system (copyright 1995, Gaussian, Inc.),
 the Gaussian 92(TM) system (copyright 1992, Gaussian, Inc.),
 the Gaussian 90(TM) system (copyright 1990, Gaussian, Inc.),
 the Gaussian 88(TM) system (copyright 1988, Gaussian, Inc.),
 the Gaussian 86(TM) system (copyright 1986, Carnegie Mellon
 University), and the Gaussian 82(TM) system (copyright 1983,
 Carnegie Mellon University). Gaussian is a federally registered
 trademark of Gaussian, Inc.
  
 This software contains proprietary and confidential information,
 including trade secrets, belonging to Gaussian, Inc.
  
 This software is provided under written license and may be
 used, copied, transmitted, or stored only in accord with that
 written license.
  
 The following legend is applicable only to US Government
 contracts under FAR:
  
                    RESTRICTED RIGHTS LEGEND
  
 Use, reproduction and disclosure by the US Government is
 subject to restrictions as set forth in subparagraphs (a)
 and (c) of the Commercial Computer Software - Restricted
 Rights clause in FAR 52.227-19.
  
 Gaussian, Inc.
 340 Quinnipiac St., Bldg. 40, Wallingford CT 06492
  
  
 ---------------------------------------------------------------
 Warning -- This program may not be used in any manner that
 competes with the business of Gaussian, Inc. or will provide
 assistance to any competitor of Gaussian, Inc.  The licensee
 of this program is prohibited from giving any competitor of
 Gaussian, Inc. access to this program.  By using this program,
 the user acknowledges that Gaussian, Inc. is engaged in the
 business of creating and licensing software in the field of
 computational chemistry and represents and warrants to the
 licensee that it is not a competitor of Gaussian, Inc. and that
 it will not use this program in any manner prohibited above.
 ---------------------------------------------------------------
  

 Cite this work as:
 Gaussian 09, Revision D.01,
 M. J. Frisch, G. W. Trucks, H. B. Schlegel, G. E. Scuseria, 
 M. A. Robb, J. R. Cheeseman, G. Scalmani, V. Barone, B. Mennucci, 
 G. A. Petersson, H. Nakatsuji, M. Caricato, X. Li, H. P. Hratchian, 
 A. F. Izmaylov, J. Bloino, G. Zheng, J. L. Sonnenberg, M. Hada, 
 M. Ehara, K. Toyota, R. Fukuda, J. Hasegawa, M. Ishida, T. Nakajima, 
 Y. Honda, O. Kitao, H. Nakai, T. Vreven, J. A. Montgomery, Jr., 
 J. E. Peralta, F. Ogliaro, M. Bearpark, J. J. Heyd, E. Brothers, 
 K. N. Kudin, V. N. Staroverov, T. Keith, R. Kobayashi, J. Normand, 
 K. Raghavachari, A. Rendell, J. C. Burant, S. S. Iyengar, J. Tomasi, 
 M. Cossi, N. Rega, J. M. Millam, M. Klene, J. E. Knox, J. B. Cross, 
 V. Bakken, C. Adamo, J. Jaramillo, R. Gomperts, R. E. Stratmann, 
 O. Yazyev, A. J. Austin, R. Cammi, C. Pomelli, J. W. Ochterski, 
 R. L. Martin, K. Morokuma, V. G. Zakrzewski, G. A. Voth, 
 P. Salvador, J. J. Dannenberg, S. Dapprich, A. D. Daniels, 
 O. Farkas, J. B. Foresman, J. V. Ortiz, J. Cioslowski, 
 and D. J. Fox, Gaussian, Inc., Wallingford CT, 2013.
 
 ******************************************
 Gaussian 09:  IA32W-G09RevD.01 24-Apr-2013
                19-Jul-2022 
 ******************************************
 %chk=C:\Users\aryaz\Desktop\bio_chem_project\data\Fruquintinib.C1.chk
 -------------------------------------------------------
 # opt freq=noraman rb3lyp/6-31+g(d,p) geom=connectivity
 -------------------------------------------------------
 1/14=-1,18=20,19=15,26=3,38=1,57=2/1,3;
 2/9=110,12=2,17=6,18=5,40=1/2;
 3/5=1,6=6,7=111,11=2,16=1,25=1,30=1,71=1,74=-5,116=1/1,2,3;
 4//1;
 5/5=2,38=5/2;
 6/7=2,8=2,9=2,10=2,28=1/1;
 7//1,2,3,16;
 1/14=-1,18=20,19=15,26=3/3(2);
 2/9=110/2;
 99//99;
 2/9=110/2;
 3/5=1,6=6,7=111,11=2,16=1,25=1,30=1,71=1,74=-5,116=1/1,2,3;
 4/5=5,16=3,69=1/1;
 5/5=2,38=5/2;
 7//1,2,3,16;
 1/14=-1,18=20,19=15,26=3/3(-5);
 2/9=110/2;
 6/7=2,8=2,9=2,10=2,19=2,28=1/1;
 99/9=1/99;
 ---------------------------------
 Frequintinib opt-freq calculation
 ---------------------------------
 Symbolic Z-matrix:
 Charge =  0 Multiplicity = 1
 C                    -2.76772  -5.39927  -1.68064 
 C                    -2.70003  -3.94119  -1.43706 
 C                    -3.55746  -2.88923  -1.72541 
 C                    -2.91903  -1.71698  -1.19745 
 C                    -3.23745  -0.34686  -1.07956 
 C                    -2.31262   0.51923  -0.47831 
 C                    -1.0897    0.03948  -0.00729 
 C                    -0.76257  -1.31818  -0.06964 
 C                    -1.70475  -2.14821  -0.67246 
 O                    -1.57513  -3.49226  -0.81739 
 O                    -0.25224   0.93638   0.6156 
 C                     0.99208   1.15009   0.02279 
 C                     1.9901    1.70658   0.8271 
 C                     1.84861   2.03707   2.19238 
 C                     2.91709   2.57197   2.91561 
 C                     4.13213   2.82542   2.26476 
 C                     4.25258   2.48561   0.90799 
 C                     3.20539   1.92926   0.18004 
 N                     3.39613   1.6347   -1.1128 
 C                     2.35773   1.11385  -1.78264 
 N                     1.14786   0.85767  -1.28358 
 O                     5.13121   3.41666   2.99079 
 C                     6.33907   3.75221   2.31943 
 O                     2.61177   2.84272   4.22351 
 C                     3.65955   2.64203   5.16621 
 C                    -4.83245  -3.04674  -2.40773 
 O                    -5.46082  -4.10034  -2.39634 
 N                    -5.25098  -1.93696  -3.1117 
 C                    -6.42027  -1.99856  -3.94995 
 H                    -3.54702  -5.85326  -1.06104 
 H                    -2.99436  -5.6044   -2.73142 
 H                    -1.81728  -5.88655  -1.441 
 H                    -4.18955   0.0449   -1.4246 
 H                    -2.55107   1.57554  -0.37887 
 H                     0.16428  -1.71324   0.32481 
 H                     0.9021    1.86656   2.70223 
 H                     5.1791    2.65484   0.36739 
 H                     2.51777   0.88051  -2.82984 
 H                     6.99854   4.23971   3.04394 
 H                     6.85025   2.85428   1.95738 
 H                     6.15645   4.46228   1.5062 
 H                     3.19525   2.43824   6.13632 
 H                     4.2883    1.7802    4.91636 
 H                     4.25504   3.55298   5.27584 
 H                    -4.5604   -1.22626  -3.31103 
 H                    -6.71242  -0.97979  -4.21451 
 H                    -6.17564  -2.56145  -4.85469 
 H                    -7.23811  -2.49607  -3.42163 
 

 GradGradGradGradGradGradGradGradGradGradGradGradGradGradGradGradGradGrad
 Berny optimization.
 Initialization pass.
                           ----------------------------
                           !    Initial Parameters    !
                           ! (Angstroms and Degrees)  !
 --------------------------                            --------------------------
 ! Name  Definition              Value          Derivative Info.                !
 --------------------------------------------------------------------------------
 ! R1    R(1,2)                  1.4798         estimate D2E/DX2                !
 ! R2    R(1,30)                 1.0942         estimate D2E/DX2                !
 ! R3    R(1,31)                 1.0943         estimate D2E/DX2                !
 ! R4    R(1,32)                 1.0946         estimate D2E/DX2                !
 ! R5    R(2,3)                  1.3874         estimate D2E/DX2                !
 ! R6    R(2,10)                 1.3605         estimate D2E/DX2                !
 ! R7    R(3,4)                  1.4354         estimate D2E/DX2                !
 ! R8    R(3,26)                 1.4546         estimate D2E/DX2                !
 ! R9    R(4,5)                  1.4116         estimate D2E/DX2                !
 ! R10   R(4,9)                  1.3914         estimate D2E/DX2                !
 ! R11   R(5,6)                  1.4025         estimate D2E/DX2                !
 ! R12   R(5,33)                 1.0858         estimate D2E/DX2                !
 ! R13   R(6,7)                  1.3955         estimate D2E/DX2                !
 ! R14   R(6,34)                 1.0874         estimate D2E/DX2                !
 ! R15   R(7,8)                  1.3979         estimate D2E/DX2                !
 ! R16   R(7,11)                 1.3761         estimate D2E/DX2                !
 ! R17   R(8,9)                  1.3929         estimate D2E/DX2                !
 ! R18   R(8,35)                 1.082          estimate D2E/DX2                !
 ! R19   R(9,10)                 1.358          estimate D2E/DX2                !
 ! R20   R(11,12)                1.3948         estimate D2E/DX2                !
 ! R21   R(12,13)                1.3974         estimate D2E/DX2                !
 ! R22   R(12,21)                1.3477         estimate D2E/DX2                !
 ! R23   R(13,14)                1.4118         estimate D2E/DX2                !
 ! R24   R(13,18)                1.3947         estimate D2E/DX2                !
 ! R25   R(14,15)                1.3967         estimate D2E/DX2                !
 ! R26   R(14,36)                1.0885         estimate D2E/DX2                !
 ! R27   R(15,16)                1.4015         estimate D2E/DX2                !
 ! R28   R(15,24)                1.3701         estimate D2E/DX2                !
 ! R29   R(16,17)                1.4039         estimate D2E/DX2                !
 ! R30   R(16,22)                1.3692         estimate D2E/DX2                !
 ! R31   R(17,18)                1.3914         estimate D2E/DX2                !
 ! R32   R(17,37)                1.086          estimate D2E/DX2                !
 ! R33   R(18,19)                1.3396         estimate D2E/DX2                !
 ! R34   R(19,20)                1.341          estimate D2E/DX2                !
 ! R35   R(20,21)                1.3336         estimate D2E/DX2                !
 ! R36   R(20,38)                1.0848         estimate D2E/DX2                !
 ! R37   R(22,23)                1.422          estimate D2E/DX2                !
 ! R38   R(23,39)                1.0943         estimate D2E/DX2                !
 ! R39   R(23,40)                1.0948         estimate D2E/DX2                !
 ! R40   R(23,41)                1.0949         estimate D2E/DX2                !
 ! R41   R(24,25)                1.4237         estimate D2E/DX2                !
 ! R42   R(25,42)                1.0946         estimate D2E/DX2                !
 ! R43   R(25,43)                1.0957         estimate D2E/DX2                !
 ! R44   R(25,44)                1.0938         estimate D2E/DX2                !
 ! R45   R(26,27)                1.2268         estimate D2E/DX2                !
 ! R46   R(26,28)                1.3793         estimate D2E/DX2                !
 ! R47   R(28,29)                1.44           estimate D2E/DX2                !
 ! R48   R(28,45)                1.0108         estimate D2E/DX2                !
 ! R49   R(29,46)                1.0924         estimate D2E/DX2                !
 ! R50   R(29,47)                1.0933         estimate D2E/DX2                !
 ! R51   R(29,48)                1.0934         estimate D2E/DX2                !
 ! A1    A(2,1,30)             110.3758         estimate D2E/DX2                !
 ! A2    A(2,1,31)             110.6224         estimate D2E/DX2                !
 ! A3    A(2,1,32)             111.2757         estimate D2E/DX2                !
 ! A4    A(30,1,31)            108.5687         estimate D2E/DX2                !
 ! A5    A(30,1,32)            108.0429         estimate D2E/DX2                !
 ! A6    A(31,1,32)            107.8538         estimate D2E/DX2                !
 ! A7    A(1,2,3)              133.2029         estimate D2E/DX2                !
 ! A8    A(1,2,10)             115.9716         estimate D2E/DX2                !
 ! A9    A(3,2,10)             110.821          estimate D2E/DX2                !
 ! A10   A(2,3,4)              105.5382         estimate D2E/DX2                !
 ! A11   A(2,3,26)             123.8526         estimate D2E/DX2                !
 ! A12   A(4,3,26)             130.6014         estimate D2E/DX2                !
 ! A13   A(3,4,5)              136.3071         estimate D2E/DX2                !
 ! A14   A(3,4,9)              105.8919         estimate D2E/DX2                !
 ! A15   A(5,4,9)              117.7859         estimate D2E/DX2                !
 ! A16   A(4,5,6)              119.1089         estimate D2E/DX2                !
 ! A17   A(4,5,33)             121.4303         estimate D2E/DX2                !
 ! A18   A(6,5,33)             119.4478         estimate D2E/DX2                !
 ! A19   A(5,6,7)              120.6807         estimate D2E/DX2                !
 ! A20   A(5,6,34)             119.635          estimate D2E/DX2                !
 ! A21   A(7,6,34)             119.6843         estimate D2E/DX2                !
 ! A22   A(6,7,8)              121.5933         estimate D2E/DX2                !
 ! A23   A(6,7,11)             117.5161         estimate D2E/DX2                !
 ! A24   A(8,7,11)             120.7148         estimate D2E/DX2                !
 ! A25   A(7,8,9)              116.0897         estimate D2E/DX2                !
 ! A26   A(7,8,35)             122.6026         estimate D2E/DX2                !
 ! A27   A(9,8,35)             121.3077         estimate D2E/DX2                !
 ! A28   A(4,9,8)              124.6754         estimate D2E/DX2                !
 ! A29   A(4,9,10)             110.4721         estimate D2E/DX2                !
 ! A30   A(8,9,10)             124.8488         estimate D2E/DX2                !
 ! A31   A(2,10,9)             107.2341         estimate D2E/DX2                !
 ! A32   A(7,11,12)            116.7684         estimate D2E/DX2                !
 ! A33   A(11,12,13)           116.9717         estimate D2E/DX2                !
 ! A34   A(11,12,21)           118.8066         estimate D2E/DX2                !
 ! A35   A(13,12,21)           124.1783         estimate D2E/DX2                !
 ! A36   A(12,13,14)           125.3284         estimate D2E/DX2                !
 ! A37   A(12,13,18)           114.7647         estimate D2E/DX2                !
 ! A38   A(14,13,18)           119.9066         estimate D2E/DX2                !
 ! A39   A(13,14,15)           120.9124         estimate D2E/DX2                !
 ! A40   A(13,14,36)           120.2262         estimate D2E/DX2                !
 ! A41   A(15,14,36)           118.8576         estimate D2E/DX2                !
 ! A42   A(14,15,16)           119.4725         estimate D2E/DX2                !
 ! A43   A(14,15,24)           113.5475         estimate D2E/DX2                !
 ! A44   A(16,15,24)           126.9264         estimate D2E/DX2                !
 ! A45   A(15,16,17)           118.6484         estimate D2E/DX2                !
 ! A46   A(15,16,22)           117.6736         estimate D2E/DX2                !
 ! A47   A(17,16,22)           123.6673         estimate D2E/DX2                !
 ! A48   A(16,17,18)           122.5365         estimate D2E/DX2                !
 ! A49   A(16,17,37)           121.1038         estimate D2E/DX2                !
 ! A50   A(18,17,37)           116.3579         estimate D2E/DX2                !
 ! A51   A(13,18,17)           118.4843         estimate D2E/DX2                !
 ! A52   A(13,18,19)           122.4589         estimate D2E/DX2                !
 ! A53   A(17,18,19)           119.0557         estimate D2E/DX2                !
 ! A54   A(18,19,20)           117.2079         estimate D2E/DX2                !
 ! A55   A(19,20,21)           126.1707         estimate D2E/DX2                !
 ! A56   A(19,20,38)           116.8421         estimate D2E/DX2                !
 ! A57   A(21,20,38)           116.9871         estimate D2E/DX2                !
 ! A58   A(12,21,20)           115.2094         estimate D2E/DX2                !
 ! A59   A(16,22,23)           118.1198         estimate D2E/DX2                !
 ! A60   A(22,23,39)           107.7237         estimate D2E/DX2                !
 ! A61   A(22,23,40)           111.0496         estimate D2E/DX2                !
 ! A62   A(22,23,41)           111.223          estimate D2E/DX2                !
 ! A63   A(39,23,40)           107.6342         estimate D2E/DX2                !
 ! A64   A(39,23,41)           107.6586         estimate D2E/DX2                !
 ! A65   A(40,23,41)           111.3538         estimate D2E/DX2                !
 ! A66   A(15,24,25)           116.1194         estimate D2E/DX2                !
 ! A67   A(24,25,42)           107.5124         estimate D2E/DX2                !
 ! A68   A(24,25,43)           112.4714         estimate D2E/DX2                !
 ! A69   A(24,25,44)           110.4653         estimate D2E/DX2                !
 ! A70   A(42,25,43)           107.4007         estimate D2E/DX2                !
 ! A71   A(42,25,44)           107.286          estimate D2E/DX2                !
 ! A72   A(43,25,44)           111.4394         estimate D2E/DX2                !
 ! A73   A(3,26,27)            122.5197         estimate D2E/DX2                !
 ! A74   A(3,26,28)            114.7242         estimate D2E/DX2                !
 ! A75   A(27,26,28)           122.7063         estimate D2E/DX2                !
 ! A76   A(26,28,29)           120.6028         estimate D2E/DX2                !
 ! A77   A(26,28,45)           117.3272         estimate D2E/DX2                !
 ! A78   A(29,28,45)           118.0362         estimate D2E/DX2                !
 ! A79   A(28,29,46)           108.5576         estimate D2E/DX2                !
 ! A80   A(28,29,47)           108.7876         estimate D2E/DX2                !
 ! A81   A(28,29,48)           110.2152         estimate D2E/DX2                !
 ! A82   A(46,29,47)           109.8526         estimate D2E/DX2                !
 ! A83   A(46,29,48)           109.9587         estimate D2E/DX2                !
 ! A84   A(47,29,48)           109.4484         estimate D2E/DX2                !
 ! D1    D(30,1,2,3)           -68.8788         estimate D2E/DX2                !
 ! D2    D(30,1,2,10)          111.9769         estimate D2E/DX2                !
 ! D3    D(31,1,2,3)            51.3017         estimate D2E/DX2                !
 ! D4    D(31,1,2,10)         -127.8426         estimate D2E/DX2                !
 ! D5    D(32,1,2,3)           171.1745         estimate D2E/DX2                !
 ! D6    D(32,1,2,10)           -7.9698         estimate D2E/DX2                !
 ! D7    D(1,2,3,4)            178.7905         estimate D2E/DX2                !
 ! D8    D(1,2,3,26)            -0.2874         estimate D2E/DX2                !
 ! D9    D(10,2,3,4)            -2.0325         estimate D2E/DX2                !
 ! D10   D(10,2,3,26)          178.8896         estimate D2E/DX2                !
 ! D11   D(1,2,10,9)          -179.4056         estimate D2E/DX2                !
 ! D12   D(3,2,10,9)             1.2617         estimate D2E/DX2                !
 ! D13   D(2,3,4,5)           -176.5023         estimate D2E/DX2                !
 ! D14   D(2,3,4,9)              1.9804         estimate D2E/DX2                !
 ! D15   D(26,3,4,5)             2.4891         estimate D2E/DX2                !
 ! D16   D(26,3,4,9)          -179.0283         estimate D2E/DX2                !
 ! D17   D(2,3,26,27)           24.735          estimate D2E/DX2                !
 ! D18   D(2,3,26,28)         -152.7599         estimate D2E/DX2                !
 ! D19   D(4,3,26,27)         -154.0949         estimate D2E/DX2                !
 ! D20   D(4,3,26,28)           28.4102         estimate D2E/DX2                !
 ! D21   D(3,4,5,6)           -179.9463         estimate D2E/DX2                !
 ! D22   D(3,4,5,33)             1.3771         estimate D2E/DX2                !
 ! D23   D(9,4,5,6)              1.7033         estimate D2E/DX2                !
 ! D24   D(9,4,5,33)          -176.9733         estimate D2E/DX2                !
 ! D25   D(3,4,9,8)            179.3691         estimate D2E/DX2                !
 ! D26   D(3,4,9,10)            -1.3053         estimate D2E/DX2                !
 ! D27   D(5,4,9,8)             -1.8156         estimate D2E/DX2                !
 ! D28   D(5,4,9,10)           177.5099         estimate D2E/DX2                !
 ! D29   D(4,5,6,7)              0.3215         estimate D2E/DX2                !
 ! D30   D(4,5,6,34)          -179.7158         estimate D2E/DX2                !
 ! D31   D(33,5,6,7)           179.0248         estimate D2E/DX2                !
 ! D32   D(33,5,6,34)           -1.0125         estimate D2E/DX2                !
 ! D33   D(5,6,7,8)             -2.44           estimate D2E/DX2                !
 ! D34   D(5,6,7,11)          -177.6524         estimate D2E/DX2                !
 ! D35   D(34,6,7,8)           177.5973         estimate D2E/DX2                !
 ! D36   D(34,6,7,11)            2.3849         estimate D2E/DX2                !
 ! D37   D(6,7,8,9)              2.3265         estimate D2E/DX2                !
 ! D38   D(6,7,8,35)          -177.5946         estimate D2E/DX2                !
 ! D39   D(11,7,8,9)           177.3873         estimate D2E/DX2                !
 ! D40   D(11,7,8,35)           -2.5338         estimate D2E/DX2                !
 ! D41   D(6,7,11,12)         -118.4781         estimate D2E/DX2                !
 ! D42   D(8,7,11,12)           66.2652         estimate D2E/DX2                !
 ! D43   D(7,8,9,4)             -0.1854         estimate D2E/DX2                !
 ! D44   D(7,8,9,10)          -179.4154         estimate D2E/DX2                !
 ! D45   D(35,8,9,4)           179.7368         estimate D2E/DX2                !
 ! D46   D(35,8,9,10)            0.5068         estimate D2E/DX2                !
 ! D47   D(4,9,10,2)             0.077          estimate D2E/DX2                !
 ! D48   D(8,9,10,2)           179.4011         estimate D2E/DX2                !
 ! D49   D(7,11,12,13)        -160.5808         estimate D2E/DX2                !
 ! D50   D(7,11,12,21)          21.7136         estimate D2E/DX2                !
 ! D51   D(11,12,13,14)          1.6297         estimate D2E/DX2                !
 ! D52   D(11,12,13,18)       -178.5711         estimate D2E/DX2                !
 ! D53   D(21,12,13,14)        179.1994         estimate D2E/DX2                !
 ! D54   D(21,12,13,18)         -1.0014         estimate D2E/DX2                !
 ! D55   D(11,12,21,20)        178.7466         estimate D2E/DX2                !
 ! D56   D(13,12,21,20)          1.2185         estimate D2E/DX2                !
 ! D57   D(12,13,14,15)        179.0035         estimate D2E/DX2                !
 ! D58   D(12,13,14,36)         -0.2826         estimate D2E/DX2                !
 ! D59   D(18,13,14,15)         -0.7861         estimate D2E/DX2                !
 ! D60   D(18,13,14,36)        179.9278         estimate D2E/DX2                !
 ! D61   D(12,13,18,17)        179.7902         estimate D2E/DX2                !
 ! D62   D(12,13,18,19)          0.1725         estimate D2E/DX2                !
 ! D63   D(14,13,18,17)         -0.3988         estimate D2E/DX2                !
 ! D64   D(14,13,18,19)        179.9835         estimate D2E/DX2                !
 ! D65   D(13,14,15,16)          2.1608         estimate D2E/DX2                !
 ! D66   D(13,14,15,24)        179.6811         estimate D2E/DX2                !
 ! D67   D(36,14,15,16)       -178.5434         estimate D2E/DX2                !
 ! D68   D(36,14,15,24)         -1.0232         estimate D2E/DX2                !
 ! D69   D(14,15,16,17)         -2.3079         estimate D2E/DX2                !
 ! D70   D(14,15,16,22)        176.5457         estimate D2E/DX2                !
 ! D71   D(24,15,16,17)       -179.464          estimate D2E/DX2                !
 ! D72   D(24,15,16,22)         -0.6103         estimate D2E/DX2                !
 ! D73   D(14,15,24,25)        145.2155         estimate D2E/DX2                !
 ! D74   D(16,15,24,25)        -37.4853         estimate D2E/DX2                !
 ! D75   D(15,16,17,18)          1.1584         estimate D2E/DX2                !
 ! D76   D(15,16,17,37)       -179.3545         estimate D2E/DX2                !
 ! D77   D(22,16,17,18)       -177.6218         estimate D2E/DX2                !
 ! D78   D(22,16,17,37)          1.8653         estimate D2E/DX2                !
 ! D79   D(15,16,22,23)       -176.2493         estimate D2E/DX2                !
 ! D80   D(17,16,22,23)          2.542          estimate D2E/DX2                !
 ! D81   D(16,17,18,13)          0.2039         estimate D2E/DX2                !
 ! D82   D(16,17,18,19)        179.8349         estimate D2E/DX2                !
 ! D83   D(37,17,18,13)       -179.3059         estimate D2E/DX2                !
 ! D84   D(37,17,18,19)          0.3251         estimate D2E/DX2                !
 ! D85   D(13,18,19,20)          0.3364         estimate D2E/DX2                !
 ! D86   D(17,18,19,20)       -179.2792         estimate D2E/DX2                !
 ! D87   D(18,19,20,21)         -0.0964         estimate D2E/DX2                !
 ! D88   D(18,19,20,38)        179.8116         estimate D2E/DX2                !
 ! D89   D(19,20,21,12)         -0.6497         estimate D2E/DX2                !
 ! D90   D(38,20,21,12)        179.4424         estimate D2E/DX2                !
 ! D91   D(16,22,23,39)        178.1575         estimate D2E/DX2                !
 ! D92   D(16,22,23,40)        -64.2117         estimate D2E/DX2                !
 ! D93   D(16,22,23,41)         60.3993         estimate D2E/DX2                !
 ! D94   D(15,24,25,42)       -154.2565         estimate D2E/DX2                !
 ! D95   D(15,24,25,43)        -36.2307         estimate D2E/DX2                !
 ! D96   D(15,24,25,44)         88.9786         estimate D2E/DX2                !
 ! D97   D(3,26,28,29)         173.2891         estimate D2E/DX2                !
 ! D98   D(3,26,28,45)          16.3159         estimate D2E/DX2                !
 ! D99   D(27,26,28,29)         -4.2006         estimate D2E/DX2                !
 ! D100  D(27,26,28,45)       -161.1738         estimate D2E/DX2                !
 ! D101  D(26,28,29,46)        166.426          estimate D2E/DX2                !
 ! D102  D(26,28,29,47)        -74.0627         estimate D2E/DX2                !
 ! D103  D(26,28,29,48)         45.9405         estimate D2E/DX2                !
 ! D104  D(45,28,29,46)        -36.7594         estimate D2E/DX2                !
 ! D105  D(45,28,29,47)         82.7518         estimate D2E/DX2                !
 ! D106  D(45,28,29,48)       -157.2449         estimate D2E/DX2                !
 --------------------------------------------------------------------------------
 Trust Radius=3.00D-01 FncErr=1.00D-07 GrdErr=1.00D-06
 Number of steps in this run=    251 maximum allowed number of steps=    288.
 GradGradGradGradGradGradGradGradGradGradGradGradGradGradGradGradGradGrad

                          Input orientation:                          
 ---------------------------------------------------------------------
 Center     Atomic      Atomic             Coordinates (Angstroms)
 Number     Number       Type             X           Y           Z
 ---------------------------------------------------------------------
      1          6           0       -2.767723   -5.399272   -1.680641
      2          6           0       -2.700029   -3.941191   -1.437059
      3          6           0       -3.557465   -2.889226   -1.725406
      4          6           0       -2.919025   -1.716979   -1.197450
      5          6           0       -3.237447   -0.346863   -1.079556
      6          6           0       -2.312621    0.519235   -0.478310
      7          6           0       -1.089699    0.039483   -0.007291
      8          6           0       -0.762573   -1.318176   -0.069642
      9          6           0       -1.704748   -2.148208   -0.672456
     10          8           0       -1.575134   -3.492255   -0.817388
     11          8           0       -0.252240    0.936381    0.615604
     12          6           0        0.992076    1.150089    0.022792
     13          6           0        1.990099    1.706576    0.827095
     14          6           0        1.848615    2.037070    2.192379
     15          6           0        2.917089    2.571972    2.915613
     16          6           0        4.132131    2.825420    2.264762
     17          6           0        4.252579    2.485607    0.907992
     18          6           0        3.205388    1.929264    0.180044
     19          7           0        3.396131    1.634704   -1.112797
     20          6           0        2.357731    1.113849   -1.782643
     21          7           0        1.147864    0.857669   -1.283581
     22          8           0        5.131211    3.416662    2.990785
     23          6           0        6.339066    3.752208    2.319435
     24          8           0        2.611766    2.842719    4.223507
     25          6           0        3.659554    2.642032    5.166214
     26          6           0       -4.832447   -3.046744   -2.407730
     27          8           0       -5.460824   -4.100339   -2.396335
     28          7           0       -5.250977   -1.936963   -3.111701
     29          6           0       -6.420267   -1.998557   -3.949953
     30          1           0       -3.547023   -5.853265   -1.061042
     31          1           0       -2.994363   -5.604397   -2.731422
     32          1           0       -1.817278   -5.886550   -1.441003
     33          1           0       -4.189554    0.044904   -1.424603
     34          1           0       -2.551075    1.575543   -0.378871
     35          1           0        0.164283   -1.713240    0.324810
     36          1           0        0.902104    1.866556    2.702234
     37          1           0        5.179100    2.654841    0.367387
     38          1           0        2.517766    0.880506   -2.829840
     39          1           0        6.998541    4.239713    3.043945
     40          1           0        6.850251    2.854277    1.957380
     41          1           0        6.156450    4.462281    1.506198
     42          1           0        3.195255    2.438237    6.136323
     43          1           0        4.288305    1.780200    4.916365
     44          1           0        4.255041    3.552983    5.275843
     45          1           0       -4.560400   -1.226259   -3.311030
     46          1           0       -6.712418   -0.979788   -4.214514
     47          1           0       -6.175644   -2.561452   -4.854694
     48          1           0       -7.238111   -2.496071   -3.421628
 ---------------------------------------------------------------------
                    Distance matrix (angstroms):
                    1          2          3          4          5
     1  C    0.000000
     2  C    1.479837   0.000000
     3  C    2.631735   1.387433   0.000000
     4  C    3.716941   2.247774   1.435446   0.000000
     5  C    5.109675   3.651824   2.642563   1.411563   0.000000
     6  C    6.056521   4.578720   3.836989   2.426013   1.402471
     7  C    5.932615   4.525832   4.197513   2.801441   2.431426
     8  C    4.824033   3.536067   3.608486   2.466025   2.844006
     9  C    3.565918   2.188604   2.256185   1.391419   2.399946
    10  O    2.409188   1.360486   2.262250   2.258782   3.567282
    11  O    7.193115   5.830592   5.571365   4.176030   3.664934
    12  C    7.741571   6.456310   6.330133   5.000579   4.620054
    13  C    8.911717   7.682510   7.642782   6.318149   5.931202
    14  C    9.571314   8.342816   8.297176   6.950843   6.500516
    15  C   10.815885   9.639453   9.658342   8.329022   7.896789
    16  C   11.437647  10.303830  10.378271   9.074090   8.692440
    17  C   10.870004   9.754063   9.839735   8.574761   8.250679
    18  C    9.635749   8.482406   8.519669   7.259547   6.948199
    19  N    9.369758   8.267945   8.318276   7.149975   6.923298
    20  C    8.288634   7.159176   7.142649   6.016660   5.825292
    21  N    7.391806   6.152958   6.031132   4.814128   4.552304
    22  O   12.725411  11.622053  11.726029  10.426020  10.038238
    23  C   13.516058  12.450095  12.586131  11.313388  10.957423
    24  O   11.477295  10.309152  10.310391   8.987062   8.515233
    25  C   12.363328  11.286555  11.409408  10.137796   9.773011
    26  C    3.213430   2.507876   1.454633   2.625687   3.405500
    27  O    3.074449   2.927034   2.353661   3.684898   4.556962
    28  N    4.494671   3.650848   2.386755   3.025020   3.272970
    29  C    5.482309   4.891690   3.733301   4.462538   4.593214
    30  H    1.094221   2.124809   3.037600   4.185910   5.515128
    31  H    1.094342   2.127972   2.949798   4.179805   5.516287
    32  H    1.094629   2.136280   3.477512   4.319548   5.730241
    33  H    5.632603   4.255325   3.016477   2.184050   1.085840
    34  H    7.098562   5.619279   4.770758   3.412647   2.158173
    35  H    5.119114   4.033885   4.408824   3.438616   3.925683
    36  H    9.244971   7.989933   7.880940   6.530719   6.028021
    37  H   11.498485  10.432849  10.556705   9.334943   9.052189
    38  H    8.288104   7.239750   7.234575   6.242622   6.139414
    39  H   14.512466  13.456182  13.601387  12.321921  11.950539
    40  H   13.185663  12.202805  12.444729  11.237798  11.010537
    41  H   13.676514  12.558595  12.603493  11.307397  10.865509
    42  H   12.573328  11.524217  11.652805  10.413187  10.060086
    43  H   12.035482  11.042514  11.290383  10.077430   9.854562
    44  H   13.336220  12.231054  12.310759  11.006510  10.570585
    45  H    4.825546   3.787294   2.507098   2.720687   2.739164
    46  H    6.443057   5.708190   4.449196   4.902648   4.722710
    47  H    5.453601   5.065946   4.093256   4.969319   5.271535
    48  H    5.607494   5.159562   4.071720   4.920209   5.109767
                    6          7          8          9         10
     6  C    0.000000
     7  C    1.395549   0.000000
     8  C    2.438387   1.397904   0.000000
     9  C    2.742709   2.367852   1.392850   0.000000
    10  O    4.092788   3.655828   2.438443   1.358038   0.000000
    11  O    2.369774   1.376140   2.411022   3.644663   4.839043
    12  C    3.401485   2.359691   3.029797   4.316827   5.371018
    13  C    4.650511   3.600077   4.186939   5.546162   6.514834
    14  C    5.172261   4.178827   4.815881   6.192755   7.166184
    15  C    6.563711   5.568772   6.130653   7.517693   8.419633
    16  C    7.374128   6.339652   6.824731   8.211784   9.054587
    17  C    6.992159   5.946528   6.369951   7.711018   8.524906
    18  C    5.733239   4.696184   5.133510   6.439097   7.296653
    19  N    5.851212   4.887693   5.206005   6.365791   7.147479
    20  C    4.885390   4.023793   4.311081   5.327033   6.133135
    21  N    3.569027   2.702782   3.139700   4.188815   5.153047
    22  O    8.708636   7.687231   8.156077   9.545546  10.354245
    23  C    9.650450   8.624647   9.047086  10.414858  11.178393
    24  O    7.194112   6.281610   6.865154   8.216575   9.114420
    25  C    8.487272   7.489581   7.915342   9.263488  10.041660
    26  C    4.773718   5.412492   5.001848   3.687959   3.652089
    27  O    5.910200   6.477067   5.935276   4.570633   4.238092
    28  N    4.647751   5.555171   5.457361   4.309325   4.603762
    29  C    5.938378   6.936363   6.894144   5.744606   5.959816
    30  H    6.517060   6.470958   5.413231   4.156010   3.085786
    31  H    6.560499   6.549963   5.517034   4.224653   3.184161
    32  H    6.496632   6.140258   4.884986   3.818184   2.485997
    33  H    2.154841   3.408505   3.929135   3.398489   4.440202
    34  H    1.087445   2.152480   3.415840   3.829985   5.179511
    35  H    3.429868   2.180550   1.082003   2.162640   2.737715
    36  H    4.718643   3.827141   4.538388   5.856837   6.873231
    37  H    7.835936   6.802817   7.160959   8.458009   9.209243
    38  H    5.384500   4.657028   4.818041   5.626459   6.318452
    39  H   10.627604   9.611014  10.040888  11.417723  12.173788
    40  H    9.764386   8.650191   8.914778  10.253239  10.907105
    41  H    9.550447   8.623136   9.152586  10.499692  11.333627
    42  H    8.818879   7.865039   8.263718   9.560595  10.309290
    43  H    8.617701   7.496360   7.744131   9.087573   9.749596
    44  H    9.243814   8.295929   8.802207  10.168821  10.988803
    45  H    4.015415   4.956063   4.993849   3.995849   4.501644
    46  H    5.963599   7.096098   7.259141   6.244049   6.651665
    47  H    6.600478   7.491930   7.331016   6.136025   6.191197
    48  H    6.481948   7.475942   7.386193   6.188462   6.312191
                   11         12         13         14         15
    11  O    0.000000
    12  C    1.394784   0.000000
    13  C    2.380339   1.397365   0.000000
    14  C    2.848039   2.495496   1.411823   0.000000
    15  C    4.243801   3.754442   2.443384   1.396719   0.000000
    16  C    5.050832   4.206318   2.811939   2.416854   1.401489
    17  C    4.772734   3.632914   2.394212   2.762224   2.412786
    18  C    3.623634   2.351721   1.394702   2.429392   2.824805
    19  N    4.097028   2.702571   2.396931   3.671634   4.163657
    20  C    3.548949   2.264050   2.701335   4.112461   4.951021
    21  N    2.360803   1.347735   2.425893   3.736888   4.868492
    22  O    6.385517   5.574834   4.180016   3.649132   2.370968
    23  C    7.367309   6.374629   5.032416   4.808534   3.668557
    24  O    4.985340   4.809823   3.634956   2.314509   1.370078
    25  C    6.238544   5.982986   4.742374   3.534002   2.370943
    26  C    6.781160   7.579309   8.922179   9.573022  10.952774
    27  O    7.846635   8.663666   9.981334  10.590184  11.955164
    28  N    6.865586   7.637450   9.012362   9.712384  11.107488
    29  C    8.216004   8.979950  10.357724  11.062953  12.458408
    30  H    7.730849   8.415764   9.559078  10.097278  11.339450
    31  H    7.842424   8.312670   9.537203  10.300013  11.562322
    32  H    7.295983   7.716830   8.791812   9.456426  10.627367
    33  H    4.523231   5.492329   6.783760   7.315105   8.702179
    34  H    2.584985   3.591136   4.700402   5.116796   6.461215
    35  H    2.697878   2.995849   3.909097   4.515486   5.714302
    36  H    2.559641   2.775037   2.173815   1.088535   2.145531
    37  H    5.702120   4.462532   3.358611   3.847644   3.408374
    38  H    4.421215   3.246215   3.786028   5.196931   6.002562
    39  H    8.329626   7.399375   6.034542   5.665557   4.410904
    40  H    7.478240   6.400398   5.120141   5.073403   4.058038
    41  H    7.368612   6.312041   5.041188   4.990986   4.006642
    42  H    6.679755   6.624846   5.493234   4.186773   3.235465
    43  H    6.310715   5.933736   4.691407   3.665811   2.551499
    44  H    6.991425   6.634409   5.322644   4.194834   2.884993
    45  H    6.217371   6.898651   8.284602   9.056064  10.445596
    46  H    8.290696   9.047120  10.410004  11.110400  12.497244
    47  H    8.788954   9.430887  10.824886  11.627398  13.015664
    48  H    8.768316   9.638179  10.994260  11.603234  12.998991
                   16         17         18         19         20
    16  C    0.000000
    17  C    1.403854   0.000000
    18  C    2.451122   1.391414   0.000000
    19  N    3.656147   2.353960   1.339622   0.000000
    20  C    4.739141   3.565344   2.288135   1.340990   0.000000
    21  N    5.036728   4.134298   2.742976   2.384880   1.333593
    22  O    1.369247   2.444767   3.717716   4.798465   5.981701
    23  C    2.394261   2.819553   4.209520   4.992485   6.295951
    24  O    2.479615   3.716509   4.187646   5.527266   6.255186
    25  C    2.945400   4.302162   5.057291   6.364753   7.233028
    26  C   11.690943  11.141751   9.801226   9.555224   8.330663
    27  O   12.716791  12.191942  10.867248  10.629386   9.417759
    28  N   11.816487  11.226514   9.863742   9.566864   8.304595
    29  C   13.162315  12.554560  11.186505  10.844893   9.562299
    30  H   12.056116  11.586529  10.378010  10.211745   9.161196
    31  H   12.116543  11.454766  10.181828   9.790963   8.641756
    32  H   11.181529  10.604431   9.430903   9.157326   8.158003
    33  H    9.518042   9.092174   7.798133   7.756758   6.643627
    34  H    7.294945   6.983833   5.794339   5.992612   5.126413
    35  H    6.332983   5.889362   4.747327   4.870348   4.152711
    36  H    3.397628   3.850741   3.416210   4.563813   4.774886
    37  H    2.173769   1.085972   2.111184   2.531917   3.867480
    38  H    5.687165   4.422365   3.260694   2.070888   1.084750
    39  H    3.289932   3.896087   5.284705   6.086209   7.389457
    40  H    2.735597   2.825781   4.159279   4.779571   6.099147
    41  H    2.711568   2.808881   4.108968   4.740642   6.038106
    42  H    4.002078   5.334381   5.977994   7.296284   8.072513
    43  H    2.854448   4.070127   4.860829   6.096551   7.003416
    44  H    3.100172   4.496379   5.450266   6.725493   7.705283
    45  H   11.093496  10.452114   9.080330   8.736344   7.461408
    46  H   13.193365  12.588891  11.231100  10.892152   9.621067
    47  H   13.636542  12.939443  11.555037  11.100828   9.785900
    48  H   13.781717  13.251365  11.900517  11.639635  10.382581
                   21         22         23         24         25
    21  N    0.000000
    22  O    6.378534   0.000000
    23  C    6.950443   1.422047   0.000000
    24  O    6.034190   2.862973   4.283156   0.000000
    25  C    7.147894   2.738305   4.064040   1.423668   0.000000
    26  C    7.229957  13.045845  13.905918  11.579093  12.721670
    27  O    8.336356  14.061208  14.937818  12.537746  13.632058
    28  N    7.217836  13.179206  14.006891  11.767470  12.995716
    29  C    8.517287  14.523604  15.335485  13.108051  14.361140
    30  H    8.193175  13.328938  14.192515  11.894422  12.762583
    31  H    7.811056  13.421927  14.148149  12.294450  13.215554
    32  H    7.368945  12.428677  13.174692  11.309432  12.099079
    33  H    5.400788  10.850855  11.773435   9.272910  10.573194
    34  H    3.875047   8.588470   9.542187   7.031539   8.393883
    35  H    3.188092   7.621922   8.483962   6.476633   7.390840
    36  H    4.118855   4.513472   5.767389   2.487993   3.778371
    37  H    4.712365   2.732194   2.521949   4.636395   5.033678
    38  H    2.065931   6.865993   7.025955   7.321805   8.267015
    39  H    8.024719   2.041362   1.094295   4.752552   4.266783
    40  H    6.856200   2.083099   1.094840   4.806269   4.530144
    41  H    6.772150   2.085290   1.094946   4.750951   4.789939
    42  H    7.857797   3.820948   5.116513   2.040326   1.094632
    43  H    7.010902   2.663898   3.852075   2.102328   1.095676
    44  H    7.742435   2.451071   3.622596   2.076593   1.093825
    45  H    6.406059  12.457805  13.239548  11.169861  12.425578
    46  H    8.587821  14.543613  15.343582  13.143522  14.446226
    47  H    8.836120  15.004478  15.746377  13.741811  14.974177
    48  H    9.281347  15.135375  16.010638  13.563586  14.795616
                   26         27         28         29         30
    26  C    0.000000
    27  O    1.226805   0.000000
    28  N    1.379259   2.288227   0.000000
    29  C    2.449146   2.784196   1.440034   0.000000
    30  H    3.367855   2.918628   4.737730   5.608931   0.000000
    31  H    3.166215   2.908247   4.322846   5.120910   1.776946
    32  H    4.253270   4.168769   5.493702   6.526778   1.771298
    33  H    3.307285   4.443358   2.810821   3.940711   5.944192
    34  H    5.539536   6.689727   5.205336   6.363762   7.526251
    35  H    5.849129   6.689148   6.417530   7.855653   5.730111
    36  H    9.117967  10.103767   9.280571  10.621102   9.672260
    37  H   11.850756  12.902659  11.915335  13.222664  12.270839
    38  H    8.344285   9.415660   8.268672   9.456854   9.233308
    39  H   14.926000  15.949573  15.036422  16.367498  15.163377
    40  H   13.797162  14.794732  13.967508  15.315130  13.893720
    41  H   13.873000  14.950227  13.871002  15.155389  14.393004
    42  H   12.943332  13.801701  13.266768  14.624512  12.884462
    43  H   12.654243  13.531513  13.010189  14.407085  12.465614
    44  H   13.607944  14.554508  13.815020  15.162358  13.766110
    45  H    2.050396   3.147661   1.010806   2.112764   5.243907
    46  H    3.327322   3.822317   2.065960   1.092353   6.611724
    47  H    2.833253   2.987084   2.069546   1.093274   5.668993
    48  H    2.668043   2.604545   2.087429   1.093397   5.519715
                   31         32         33         34         35
    31  H    0.000000
    32  H    1.769272   0.000000
    33  H    5.920377   6.388279   0.000000
    34  H    7.568523   7.572940   2.474071   0.000000
    35  H    5.870154   4.945826   5.010729   4.322548   0.000000
    36  H   10.026077   9.201745   6.802513   4.637062   4.360214
    37  H   12.025936  11.188161   9.889119   7.840751   6.650589
    38  H    8.511593   8.155644   6.903699   5.673048   4.713621
    39  H   15.169690  14.155374  12.756873  10.488499   9.462475
    40  H   13.800379  12.770166  11.883084   9.771292   8.260125
    41  H   14.248958  13.392708  11.625085   9.365240   8.685552
    42  H   13.477101  12.322477  10.836560   8.729965   7.758559
    43  H   12.886356  11.682180  10.728150   8.652082   7.091830
    44  H   14.160783  13.080286  11.336392   9.066933   8.305428
    45  H    4.685777   5.721890   2.304776   4.526040   5.981564
    46  H    6.116413   7.465325   3.898518   6.209562   8.272390
    47  H    4.887571   6.457935   4.743751   7.091207   8.230516
    48  H    5.305419   6.693554   4.442788   6.914096   8.333310
                   36         37         38         39         40
    36  H    0.000000
    37  H    4.936152   0.000000
    38  H    5.846923   4.522524   0.000000
    39  H    6.550967   3.603629   8.115600   0.000000
    40  H    6.075430   2.315297   6.751569   1.766931   0.000000
    41  H    5.981341   2.349243   6.698534   1.767292   1.808481
    42  H    4.168732   6.104357   9.125656   5.222365   5.567374
    43  H    4.046750   4.717172   7.996746   4.111026   4.058670
    44  H    4.550789   5.074789   8.709900   3.602743   4.270305
    45  H    8.692744  11.110875   7.400705  14.278363  13.214003
    46  H   10.673520  13.251888   9.517054  16.368226  15.386303
    47  H   11.260948  13.542897   9.566739  16.798913  15.665517
    48  H   11.081395  13.966949  10.340630  17.025178  16.001310
                   41         42         43         44         45
    41  H    0.000000
    42  H    5.856918   0.000000
    43  H    4.723639   1.765239   0.000000
    44  H    4.318844   1.762450   1.809168   0.000000
    45  H   13.054349  12.760533  12.451040  13.201801   0.000000
    46  H   15.098027  14.730401  14.560439  15.195330   2.346959
    47  H   15.552309  15.284407  14.960540  15.773817   2.602816
    48  H   15.878174  14.985225  14.854861  15.631046   2.965602
                   46         47         48
    46  H    0.000000
    47  H    1.788747   0.000000
    48  H    1.790010   1.785158   0.000000
 Stoichiometry    C21H19N3O5
 Framework group  C1[X(C21H19N3O5)]
 Deg. of freedom   138
 Full point group                 C1      NOp   1
 Largest Abelian subgroup         C1      NOp   1
 Largest concise Abelian subgroup C1      NOp   1
                         Standard orientation:                         
 ---------------------------------------------------------------------
 Center     Atomic      Atomic             Coordinates (Angstroms)
 Number     Number       Type             X           Y           Z
 ---------------------------------------------------------------------
      1          6           0        5.550217   -0.882726    2.825011
      2          6           0        4.643245   -0.661934    1.676721
      3          6           0        4.859592   -0.362897    0.339283
      4          6           0        3.555452   -0.305395   -0.257723
      5          6           0        3.034714   -0.115701   -1.555936
      6          6           0        1.644585   -0.124183   -1.741399
      7          6           0        0.782978   -0.310485   -0.659511
      8          6           0        1.267469   -0.544214    0.630750
      9          6           0        2.652539   -0.529283    0.777009
     10          8           0        3.311960   -0.745447    1.944358
     11          8           0       -0.567007   -0.356763   -0.922501
     12          6           0       -1.356846    0.627411   -0.328382
     13          6           0       -2.726623    0.368335   -0.232352
     14          6           0       -3.365019   -0.817152   -0.656989
     15          6           0       -4.742154   -0.987179   -0.497573
     16          6           0       -5.506360    0.051972    0.050446
     17          6           0       -4.851026    1.220541    0.469719
     18          6           0       -3.476696    1.395248    0.340389
     19          7           0       -2.924029    2.540722    0.761146
     20          6           0       -1.598996    2.675746    0.605218
     21          7           0       -0.773537    1.774934    0.070780
     22          8           0       -6.862053   -0.125830    0.123390
     23          6           0       -7.654765    0.953345    0.602146
     24          8           0       -5.203361   -2.188651   -0.967538
     25          6           0       -6.276654   -2.776078   -0.239663
     26          6           0        6.178363   -0.185065   -0.248234
     27          8           0        7.187275   -0.693894    0.229512
     28          7           0        6.211867    0.643165   -1.350626
     29          6           0        7.467624    1.022675   -1.944550
     30          1           0        6.106281   -1.816423    2.697258
     31          1           0        6.266339   -0.060058    2.914290
     32          1           0        4.992830   -0.945963    3.764976
     33          1           0        3.686984    0.014980   -2.414139
     34          1           0        1.234280    0.016499   -2.738592
     35          1           0        0.615005   -0.728429    1.474009
     36          1           0       -2.784828   -1.621459   -1.105739
     37          1           0       -5.402742    2.046147    0.909400
     38          1           0       -1.158180    3.606804    0.945064
     39          1           0       -8.702866    0.641800    0.558490
     40          1           0       -7.419593    1.180755    1.646968
     41          1           0       -7.544594    1.838374   -0.033066
     42          1           0       -6.232054   -3.857613   -0.402485
     43          1           0       -6.194932   -2.603501    0.839246
     44          1           0       -7.238035   -2.428227   -0.628509
     45          1           0        5.412809    1.242643   -1.505095
     46          1           0        7.269545    1.465691   -2.923190
     47          1           0        7.956042    1.755824   -1.297102
     48          1           0        8.113255    0.147183   -2.054959
 ---------------------------------------------------------------------
 Rotational constants (GHZ):      0.4708621      0.0562295      0.0554948
 Standard basis: 6-31+G(d,p) (6D, 7F)
 There are   646 symmetry adapted cartesian basis functions of A   symmetry.
 There are   646 symmetry adapted basis functions of A   symmetry.
   646 basis functions,  1061 primitive gaussians,   646 cartesian basis functions
   103 alpha electrons      103 beta electrons
       nuclear repulsion energy      2559.4965297151 Hartrees.
 NAtoms=   48 NActive=   48 NUniq=   48 SFac= 1.00D+00 NAtFMM=   60 NAOKFM=F Big=F
 Integral buffers will be    262144 words long.
 Raffenetti 2 integral format.
 Two-electron integral symmetry is turned on.
 One-electron integrals computed using PRISM.
 NBasis=   646 RedAO= T EigKep=  1.26D-06  NBF=   646
 NBsUse=   640 1.00D-06 EigRej=  7.63D-07 NBFU=   640
 ExpMin= 4.38D-02 ExpMax= 5.48D+03 ExpMxC= 8.25D+02 IAcc=2 IRadAn=         4 AccDes= 0.00D+00
 Harris functional with IExCor=  402 and IRadAn=       4 diagonalized for initial guess.
 HarFok:  IExCor=  402 AccDes= 0.00D+00 IRadAn=         4 IDoV= 1 UseB2=F ITyADJ=14
 ICtDFT=  3500011 ScaDFX=  1.000000  1.000000  1.000000  1.000000
 FoFCou: FMM=F IPFlag=           0 FMFlag=      100000 FMFlg1=           0
         NFxFlg=           0 DoJE=T BraDBF=F KetDBF=T FulRan=T
         wScrn=  0.000000 ICntrl=     500 IOpCl=  0 I1Cent=   200000004 NGrid=           0
         NMat0=    1 NMatS0=      1 NMatT0=    0 NMatD0=    1 NMtDS0=    0 NMtDT0=    0
 Petite list used in FoFCou.
 Requested convergence on RMS density matrix=1.00D-08 within 128 cycles.
 Requested convergence on MAX density matrix=1.00D-06.
 Requested convergence on             energy=1.00D-06.
 No special actions if energy rises.
 SCF Done:  E(RB3LYP) =  -1352.10904358     A.U. after   16 cycles
            NFock= 16  Conv=0.75D-08     -V/T= 2.0090

 **********************************************************************

            Population analysis using the SCF density.

 **********************************************************************

 Orbital symmetries:
       Occupied  (A) (A) (A) (A) (A) (A) (A) (A) (A) (A) (A) (A)
                 (A) (A) (A) (A) (A) (A) (A) (A) (A) (A) (A) (A)
                 (A) (A) (A) (A) (A) (A) (A) (A) (A) (A) (A) (A)
                 (A) (A) (A) (A) (A) (A) (A) (A) (A) (A) (A) (A)
                 (A) (A) (A) (A) (A) (A) (A) (A) (A) (A) (A) (A)
                 (A) (A) (A) (A) (A) (A) (A) (A) (A) (A) (A) (A)
                 (A) (A) (A) (A) (A) (A) (A) (A) (A) (A) (A) (A)
                 (A) (A) (A) (A) (A) (A) (A) (A) (A) (A) (A) (A)
                 (A) (A) (A) (A) (A) (A) (A)
       Virtual   (A) (A) (A) (A) (A) (A) (A) (A) (A) (A) (A) (A)
                 (A) (A) (A) (A) (A) (A) (A) (A) (A) (A) (A) (A)
                 (A) (A) (A) (A) (A) (A) (A) (A) (A) (A) (A) (A)
                 (A) (A) (A) (A) (A) (A) (A) (A) (A) (A) (A) (A)
                 (A) (A) (A) (A) (A) (A) (A) (A) (A) (A) (A) (A)
                 (A) (A) (A) (A) (A) (A) (A) (A) (A) (A) (A) (A)
                 (A) (A) (A) (A) (A) (A) (A) (A) (A) (A) (A) (A)
                 (A) (A) (A) (A) (A) (A) (A) (A) (A) (A) (A) (A)
                 (A) (A) (A) (A) (A) (A) (A) (A) (A) (A) (A) (A)
                 (A) (A) (A) (A) (A) (A) (A) (A) (A) (A) (A) (A)
                 (A) (A) (A) (A) (A) (A) (A) (A) (A) (A) (A) (A)
                 (A) (A) (A) (A) (A) (A) (A) (A) (A) (A) (A) (A)
                 (A) (A) (A) (A) (A) (A) (A) (A) (A) (A) (A) (A)
                 (A) (A) (A) (A) (A) (A) (A) (A) (A) (A) (A) (A)
                 (A) (A) (A) (A) (A) (A) (A) (A) (A) (A) (A) (A)
                 (A) (A) (A) (A) (A) (A) (A) (A) (A) (A) (A) (A)
                 (A) (A) (A) (A) (A) (A) (A) (A) (A) (A) (A) (A)
                 (A) (A) (A) (A) (A) (A) (A) (A) (A) (A) (A) (A)
                 (A) (A) (A) (A) (A) (A) (A) (A) (A) (A) (A) (A)
                 (A) (A) (A) (A) (A) (A) (A) (A) (A) (A) (A) (A)
                 (A) (A) (A) (A) (A) (A) (A) (A) (A) (A) (A) (A)
                 (A) (A) (A) (A) (A) (A) (A) (A) (A) (A) (A) (A)
                 (A) (A) (A) (A) (A) (A) (A) (A) (A) (A) (A) (A)
                 (A) (A) (A) (A) (A) (A) (A) (A) (A) (A) (A) (A)
                 (A) (A) (A) (A) (A) (A) (A) (A) (A) (A) (A) (A)
                 (A) (A) (A) (A) (A) (A) (A) (A) (A) (A) (A) (A)
                 (A) (A) (A) (A) (A) (A) (A) (A) (A) (A) (A) (A)
                 (A) (A) (A) (A) (A) (A) (A) (A) (A) (A) (A) (A)
                 (A) (A) (A) (A) (A) (A) (A) (A) (A) (A) (A) (A)
                 (A) (A) (A) (A) (A) (A) (A) (A) (A) (A) (A) (A)
                 (A) (A) (A) (A) (A) (A) (A) (A) (A) (A) (A) (A)
                 (A) (A) (A) (A) (A) (A) (A) (A) (A) (A) (A) (A)
                 (A) (A) (A) (A) (A) (A) (A) (A) (A) (A) (A) (A)
                 (A) (A) (A) (A) (A) (A) (A) (A) (A) (A) (A) (A)
                 (A) (A) (A) (A) (A) (A) (A) (A) (A) (A) (A) (A)
                 (A) (A) (A) (A) (A) (A) (A) (A) (A) (A) (A) (A)
                 (A) (A) (A) (A) (A) (A) (A) (A) (A) (A) (A) (A)
                 (A) (A) (A) (A) (A) (A) (A) (A) (A) (A) (A) (A)
                 (A) (A) (A) (A) (A) (A) (A) (A) (A) (A) (A) (A)
                 (A) (A) (A) (A) (A) (A) (A) (A) (A) (A) (A) (A)
                 (A) (A) (A) (A) (A) (A) (A) (A) (A) (A) (A) (A)
                 (A) (A) (A) (A) (A) (A) (A) (A) (A) (A) (A) (A)
                 (A) (A) (A) (A) (A) (A) (A) (A) (A) (A) (A) (A)
                 (A) (A) (A) (A) (A) (A) (A) (A) (A) (A) (A) (A)
                 (A) (A) (A) (A) (A) (A) (A) (A) (A)
 The electronic state is 1-A.
 Alpha  occ. eigenvalues --  -19.23288 -19.21432 -19.21325 -19.19401 -19.12144
 Alpha  occ. eigenvalues --  -14.36664 -14.34860 -14.33617 -10.31068 -10.29364
 Alpha  occ. eigenvalues --  -10.28336 -10.27247 -10.27099 -10.26266 -10.26205
 Alpha  occ. eigenvalues --  -10.25979 -10.25746 -10.24236 -10.23976 -10.22049
 Alpha  occ. eigenvalues --  -10.21666 -10.21167 -10.21063 -10.21002 -10.20943
 Alpha  occ. eigenvalues --  -10.20645 -10.20276 -10.20233 -10.19704  -1.13543
 Alpha  occ. eigenvalues --   -1.10472  -1.09910  -1.07339  -1.04041  -0.99092
 Alpha  occ. eigenvalues --   -0.92770  -0.90182  -0.87494  -0.86386  -0.82603
 Alpha  occ. eigenvalues --   -0.80362  -0.78067  -0.77011  -0.75722  -0.74308
 Alpha  occ. eigenvalues --   -0.72658  -0.71051  -0.70262  -0.66643  -0.65317
 Alpha  occ. eigenvalues --   -0.64349  -0.63871  -0.62569  -0.59812  -0.58809
 Alpha  occ. eigenvalues --   -0.56751  -0.55845  -0.54986  -0.54187  -0.52647
 Alpha  occ. eigenvalues --   -0.51621  -0.51140  -0.49836  -0.49228  -0.48631
 Alpha  occ. eigenvalues --   -0.47557  -0.47238  -0.46825  -0.46620  -0.46040
 Alpha  occ. eigenvalues --   -0.45494  -0.45187  -0.44725  -0.44005  -0.43720
 Alpha  occ. eigenvalues --   -0.43471  -0.42810  -0.41906  -0.41217  -0.40922
 Alpha  occ. eigenvalues --   -0.40406  -0.39897  -0.39748  -0.39613  -0.38928
 Alpha  occ. eigenvalues --   -0.38330  -0.37488  -0.37228  -0.36215  -0.35661
 Alpha  occ. eigenvalues --   -0.35299  -0.33874  -0.32248  -0.31304  -0.30206
 Alpha  occ. eigenvalues --   -0.28873  -0.26724  -0.26344  -0.25675  -0.25441
 Alpha  occ. eigenvalues --   -0.25103  -0.23240  -0.22054
 Alpha virt. eigenvalues --   -0.07169  -0.04255  -0.03015  -0.01394  -0.00573
 Alpha virt. eigenvalues --   -0.00504  -0.00217   0.00551   0.00669   0.01165
 Alpha virt. eigenvalues --    0.01487   0.02281   0.02585   0.02700   0.03148
 Alpha virt. eigenvalues --    0.03355   0.03535   0.04063   0.04203   0.04679
 Alpha virt. eigenvalues --    0.05159   0.05298   0.05649   0.05798   0.06087
 Alpha virt. eigenvalues --    0.06458   0.06809   0.07374   0.07514   0.07806
 Alpha virt. eigenvalues --    0.08000   0.08181   0.08388   0.09043   0.09067
 Alpha virt. eigenvalues --    0.09559   0.09630   0.10047   0.10108   0.10711
 Alpha virt. eigenvalues --    0.11001   0.11239   0.11594   0.11795   0.12125
 Alpha virt. eigenvalues --    0.12633   0.12925   0.12969   0.13296   0.13776
 Alpha virt. eigenvalues --    0.14459   0.14613   0.15173   0.15279   0.15532
 Alpha virt. eigenvalues --    0.15639   0.15860   0.16360   0.16517   0.17086
 Alpha virt. eigenvalues --    0.17334   0.17464   0.17586   0.17986   0.18431
 Alpha virt. eigenvalues --    0.18629   0.18803   0.19185   0.19245   0.19460
 Alpha virt. eigenvalues --    0.19797   0.19899   0.20180   0.20351   0.20698
 Alpha virt. eigenvalues --    0.20844   0.21177   0.21324   0.21691   0.21853
 Alpha virt. eigenvalues --    0.22081   0.22258   0.22611   0.22916   0.22963
 Alpha virt. eigenvalues --    0.23178   0.23368   0.23807   0.23910   0.24285
 Alpha virt. eigenvalues --    0.24327   0.24503   0.24899   0.25200   0.25495
 Alpha virt. eigenvalues --    0.25670   0.25796   0.26042   0.26272   0.26557
 Alpha virt. eigenvalues --    0.26745   0.27242   0.27402   0.27539   0.27805
 Alpha virt. eigenvalues --    0.27957   0.28107   0.28608   0.28746   0.28936
 Alpha virt. eigenvalues --    0.29405   0.29527   0.29658   0.30300   0.30770
 Alpha virt. eigenvalues --    0.30970   0.31195   0.31381   0.31631   0.31857
 Alpha virt. eigenvalues --    0.32076   0.32254   0.32540   0.32789   0.33151
 Alpha virt. eigenvalues --    0.33437   0.33479   0.34137   0.34225   0.34628
 Alpha virt. eigenvalues --    0.34789   0.35292   0.35706   0.35925   0.36098
 Alpha virt. eigenvalues --    0.36244   0.36988   0.37272   0.37717   0.38237
 Alpha virt. eigenvalues --    0.38768   0.38847   0.39242   0.39545   0.40144
 Alpha virt. eigenvalues --    0.40681   0.41022   0.41254   0.41473   0.41956
 Alpha virt. eigenvalues --    0.42351   0.42746   0.43107   0.44476   0.45046
 Alpha virt. eigenvalues --    0.45469   0.46015   0.46417   0.47416   0.47963
 Alpha virt. eigenvalues --    0.49057   0.49892   0.50569   0.51774   0.54106
 Alpha virt. eigenvalues --    0.55334   0.56316   0.60569   0.61177   0.63344
 Alpha virt. eigenvalues --    0.63598   0.65798   0.66248   0.66444   0.67079
 Alpha virt. eigenvalues --    0.67221   0.68295   0.69061   0.69284   0.69524
 Alpha virt. eigenvalues --    0.70539   0.70904   0.71561   0.71949   0.72863
 Alpha virt. eigenvalues --    0.73700   0.74032   0.75099   0.75365   0.76229
 Alpha virt. eigenvalues --    0.76265   0.76825   0.77331   0.77966   0.78511
 Alpha virt. eigenvalues --    0.78804   0.79287   0.79383   0.80438   0.80872
 Alpha virt. eigenvalues --    0.81127   0.82328   0.82832   0.83730   0.83986
 Alpha virt. eigenvalues --    0.85106   0.85589   0.86299   0.87206   0.87683
 Alpha virt. eigenvalues --    0.88213   0.88389   0.88941   0.89924   0.90839
 Alpha virt. eigenvalues --    0.91311   0.91504   0.92301   0.93153   0.93714
 Alpha virt. eigenvalues --    0.94435   0.94745   0.95114   0.95309   0.97026
 Alpha virt. eigenvalues --    0.97117   0.98005   0.98575   0.99517   0.99992
 Alpha virt. eigenvalues --    1.00416   1.00590   1.01575   1.02611   1.03354
 Alpha virt. eigenvalues --    1.04185   1.04600   1.05020   1.06303   1.06812
 Alpha virt. eigenvalues --    1.07701   1.07748   1.08928   1.09761   1.10087
 Alpha virt. eigenvalues --    1.11003   1.11626   1.12669   1.13658   1.14673
 Alpha virt. eigenvalues --    1.15253   1.15581   1.16622   1.16877   1.17124
 Alpha virt. eigenvalues --    1.17642   1.17929   1.18786   1.19401   1.19734
 Alpha virt. eigenvalues --    1.20086   1.20745   1.21109   1.22623   1.24038
 Alpha virt. eigenvalues --    1.24327   1.24503   1.25623   1.25812   1.26408
 Alpha virt. eigenvalues --    1.27836   1.28301   1.28695   1.28931   1.29671
 Alpha virt. eigenvalues --    1.30126   1.30922   1.31858   1.31979   1.32544
 Alpha virt. eigenvalues --    1.33021   1.33772   1.34023   1.34426   1.34542
 Alpha virt. eigenvalues --    1.35731   1.36459   1.37285   1.37487   1.38046
 Alpha virt. eigenvalues --    1.38616   1.38827   1.39319   1.40108   1.40921
 Alpha virt. eigenvalues --    1.41303   1.42154   1.43040   1.44000   1.44789
 Alpha virt. eigenvalues --    1.45522   1.46169   1.47284   1.47678   1.47887
 Alpha virt. eigenvalues --    1.49764   1.50081   1.50938   1.51501   1.53433
 Alpha virt. eigenvalues --    1.53852   1.55262   1.56902   1.58149   1.59573
 Alpha virt. eigenvalues --    1.60545   1.63123   1.65954   1.66790   1.68447
 Alpha virt. eigenvalues --    1.70359   1.70934   1.72274   1.72857   1.73703
 Alpha virt. eigenvalues --    1.75765   1.76313   1.77008   1.79072   1.79438
 Alpha virt. eigenvalues --    1.80145   1.81595   1.82329   1.82727   1.83046
 Alpha virt. eigenvalues --    1.84031   1.84689   1.85408   1.86052   1.86522
 Alpha virt. eigenvalues --    1.86836   1.87284   1.87844   1.89568   1.89786
 Alpha virt. eigenvalues --    1.90711   1.91169   1.92538   1.93160   1.93486
 Alpha virt. eigenvalues --    1.93765   1.94198   1.94523   1.95086   1.96383
 Alpha virt. eigenvalues --    1.97509   1.98021   1.99552   1.99780   2.00193
 Alpha virt. eigenvalues --    2.00452   2.01025   2.02147   2.02436   2.02771
 Alpha virt. eigenvalues --    2.03942   2.04446   2.04692   2.04920   2.05673
 Alpha virt. eigenvalues --    2.06307   2.07481   2.07614   2.08615   2.09482
 Alpha virt. eigenvalues --    2.10287   2.10498   2.12270   2.12784   2.12954
 Alpha virt. eigenvalues --    2.13798   2.14609   2.14958   2.15484   2.16986
 Alpha virt. eigenvalues --    2.17234   2.17911   2.18873   2.19025   2.21198
 Alpha virt. eigenvalues --    2.21596   2.23142   2.23691   2.24884   2.25871
 Alpha virt. eigenvalues --    2.26913   2.28094   2.28417   2.29247   2.31945
 Alpha virt. eigenvalues --    2.32703   2.33784   2.34539   2.36317   2.37032
 Alpha virt. eigenvalues --    2.38114   2.38753   2.40331   2.41237   2.42062
 Alpha virt. eigenvalues --    2.42843   2.44135   2.45170   2.45943   2.46371
 Alpha virt. eigenvalues --    2.46724   2.48617   2.50279   2.51420   2.51751
 Alpha virt. eigenvalues --    2.53135   2.53557   2.54224   2.54718   2.55792
 Alpha virt. eigenvalues --    2.56541   2.57327   2.57884   2.59112   2.59720
 Alpha virt. eigenvalues --    2.60585   2.61194   2.62284   2.63303   2.63775
 Alpha virt. eigenvalues --    2.64453   2.65151   2.65553   2.66812   2.66957
 Alpha virt. eigenvalues --    2.67257   2.67945   2.68944   2.70322   2.71338
 Alpha virt. eigenvalues --    2.71499   2.72409   2.73450   2.74658   2.76047
 Alpha virt. eigenvalues --    2.76784   2.77116   2.77844   2.78722   2.80173
 Alpha virt. eigenvalues --    2.80857   2.81615   2.84282   2.84778   2.85240
 Alpha virt. eigenvalues --    2.86297   2.87284   2.88000   2.88509   2.89178
 Alpha virt. eigenvalues --    2.91465   2.93088   2.94276   2.96124   2.97278
 Alpha virt. eigenvalues --    3.00137   3.02071   3.04337   3.04952   3.07090
 Alpha virt. eigenvalues --    3.09595   3.11823   3.12230   3.15594   3.16490
 Alpha virt. eigenvalues --    3.18555   3.21198   3.21860   3.22368   3.23248
 Alpha virt. eigenvalues --    3.24206   3.25057   3.25681   3.26989   3.28276
 Alpha virt. eigenvalues --    3.31564   3.37040   3.38197   3.40278   3.40506
 Alpha virt. eigenvalues --    3.43465   3.44510   3.44564   3.45610   3.46699
 Alpha virt. eigenvalues --    3.47699   3.48139   3.49673   3.49710   3.57468
 Alpha virt. eigenvalues --    3.60021   3.71698   3.78601   4.24650   4.26697
 Alpha virt. eigenvalues --    4.28530   4.30927   4.33640   4.35589   4.35599
 Alpha virt. eigenvalues --    4.37985   4.39434   4.41312   4.44044   4.46308
 Alpha virt. eigenvalues --    4.49222   4.50326   4.52439   4.53263   4.54793
 Alpha virt. eigenvalues --    4.54890   4.56915   4.57670   4.58449   4.64809
 Alpha virt. eigenvalues --    4.66823   4.71303   4.80701   4.81908   4.95530
 Alpha virt. eigenvalues --    4.97663   5.10266
          Condensed to atoms (all electrons):
               1          2          3          4          5          6
     1  C    8.599472  -0.456724   0.138816  -1.104482   0.010600  -0.000175
     2  C   -0.456724  11.512169   2.427623  -2.796008  -0.129617   0.424593
     3  C    0.138816   2.427623  18.598742  -1.186757  -0.028278   1.029664
     4  C   -1.104482  -2.796008  -1.186757  11.908506  -0.692604  -0.989904
     5  C    0.010600  -0.129617  -0.028278  -0.692604   9.721335  -0.008060
     6  C   -0.000175   0.424593   1.029664  -0.989904  -0.008060  12.808687
     7  C   -0.117514  -0.641407  -2.108406  -1.564951  -1.204260  -2.254951
     8  C   -0.334823  -1.043341  -1.809083  -0.903573  -0.839126  -3.348554
     9  C   -0.744977  -0.119729  -2.918075   1.197462  -0.045309  -1.485552
    10  O   -0.221274  -0.317968   0.283259   0.350317   0.062288   0.000562
    11  O   -0.000505   0.010033   0.028872   0.046399  -0.090540  -0.060885
    12  C    0.002227  -0.034247  -0.081495  -0.348615  -0.070249  -0.445908
    13  C   -0.004135  -0.034194  -0.003619  -0.107035   0.102326   0.202121
    14  C   -0.001733  -0.012538  -0.005542  -0.064117   0.040134  -0.067401
    15  C   -0.000453  -0.006187   0.001348  -0.029910   0.032588   0.085415
    16  C   -0.000006   0.000803  -0.000438   0.002846  -0.004916   0.009202
    17  C    0.000200   0.003136  -0.000666   0.010131  -0.018721  -0.055453
    18  C    0.002225   0.022999   0.000409   0.075155  -0.181658  -0.325423
    19  N   -0.000065  -0.000567   0.000008  -0.002732   0.010543   0.033009
    20  C   -0.000365  -0.006642   0.008512  -0.002221   0.004834   0.017810
    21  N   -0.000314  -0.005712   0.008042  -0.007627   0.061906   0.022252
    22  O    0.000000   0.000000   0.000000  -0.000006   0.000003  -0.000053
    23  C    0.000000   0.000001  -0.000002   0.000007   0.000006   0.000251
    24  O    0.000000  -0.000004   0.000001  -0.000007   0.000082   0.000627
    25  C    0.000000  -0.000014   0.000010  -0.000085   0.000135  -0.000267
    26  C   -0.570636  -2.798845  -7.461749   1.578199  -0.548570   0.138748
    27  O   -0.045580   0.067596  -0.088016  -0.130534   0.024026   0.008696
    28  N   -0.027188  -0.248522  -1.319435   0.355614  -0.088316  -0.011340
    29  C   -0.017910  -0.034248  -0.386220   0.038579  -0.029130   0.000723
    30  H    0.533458  -0.170426  -0.000335  -0.014003   0.000891  -0.000074
    31  H    0.469052  -0.131121   0.001853  -0.000908   0.000567  -0.000343
    32  H    0.477838  -0.094736  -0.006784  -0.007392   0.000346  -0.000156
    33  H   -0.001659  -0.009192  -0.002293  -0.086510   0.311127   0.061969
    34  H    0.000201   0.004032   0.000156   0.052827  -0.081809   0.265362
    35  H    0.006076   0.029857  -0.000722   0.091009  -0.020845   0.013993
    36  H    0.000000   0.000013   0.000108   0.001907  -0.001060  -0.003140
    37  H    0.000000   0.000000   0.000000   0.000003  -0.000001  -0.000004
    38  H    0.000003   0.000194   0.000328   0.002647  -0.001048   0.003256
    39  H    0.000000   0.000000   0.000000   0.000000   0.000000   0.000000
    40  H    0.000000   0.000000   0.000000   0.000000   0.000000   0.000001
    41  H    0.000000   0.000000   0.000000   0.000000   0.000000  -0.000001
    42  H    0.000000   0.000000   0.000000   0.000000   0.000000   0.000002
    43  H    0.000000   0.000000   0.000000   0.000000   0.000000  -0.000009
    44  H    0.000000   0.000000   0.000000   0.000000   0.000000   0.000001
    45  H    0.008699   0.035084   0.091620  -0.099778   0.025679   0.023055
    46  H    0.000454   0.000127  -0.003462  -0.002794   0.001190   0.000393
    47  H   -0.003348  -0.007784  -0.051713   0.011635   0.000735   0.000604
    48  H    0.002122   0.007631   0.005406  -0.018529  -0.001091  -0.000363
               7          8          9         10         11         12
     1  C   -0.117514  -0.334823  -0.744977  -0.221274  -0.000505   0.002227
     2  C   -0.641407  -1.043341  -0.119729  -0.317968   0.010033  -0.034247
     3  C   -2.108406  -1.809083  -2.918075   0.283259   0.028872  -0.081495
     4  C   -1.564951  -0.903573   1.197462   0.350317   0.046399  -0.348615
     5  C   -1.204260  -0.839126  -0.045309   0.062288  -0.090540  -0.070249
     6  C   -2.254951  -3.348554  -1.485552   0.000562  -0.060885  -0.445908
     7  C   15.305434   0.150664  -1.055351  -0.034266   0.073536   0.398207
     8  C    0.150664  11.958821   1.330773  -0.300080  -0.108726  -0.156965
     9  C   -1.055351   1.330773  11.758206  -0.123911   0.148446  -0.166969
    10  O   -0.034266  -0.300080  -0.123911   8.570499  -0.001406   0.006125
    11  O    0.073536  -0.108726   0.148446  -0.001406   8.448108   0.010238
    12  C    0.398207  -0.156965  -0.166969   0.006125   0.010238   7.825215
    13  C   -0.002885  -0.155399  -0.219887  -0.000010  -0.174886   0.297239
    14  C   -0.064439   0.039031  -0.069886  -0.000327  -0.053124  -0.433426
    15  C   -0.516080  -0.022157  -0.068821   0.000010  -0.038849  -0.858591
    16  C    0.133915  -0.040250   0.008817  -0.000003   0.001665  -0.275623
    17  C    0.177943  -0.007290   0.043156  -0.000018  -0.003294   0.101632
    18  C    0.101643   0.189443   0.263380   0.000414   0.056673   0.145232
    19  N   -0.010702  -0.031515  -0.015283  -0.000002  -0.009563  -0.115691
    20  C   -0.470556   0.082310   0.034355   0.000933   0.078316  -0.303422
    21  N    0.182233  -0.103811  -0.064386   0.000895  -0.148941   0.353331
    22  O   -0.000205  -0.000075  -0.000015   0.000000   0.000018  -0.003267
    23  C    0.002976  -0.000665  -0.000083   0.000000  -0.000056   0.016279
    24  O   -0.001363  -0.000547  -0.000123   0.000000  -0.000108  -0.001128
    25  C   -0.006596   0.001189  -0.000079   0.000000  -0.000327  -0.004154
    26  C    0.056731   0.829713  -1.029122   0.059178   0.003499  -0.000459
    27  O   -0.001640  -0.000498  -0.032443  -0.001047   0.000000   0.000038
    28  N    0.018106   0.057866   0.038717  -0.005300   0.000089  -0.001507
    29  C   -0.001695   0.014017   0.011186  -0.000428   0.000013  -0.000716
    30  H   -0.001268  -0.003127  -0.038233   0.001853   0.000000  -0.000008
    31  H    0.000904   0.001772   0.003543   0.004514   0.000000   0.000014
    32  H   -0.000269  -0.010505   0.005162  -0.010924   0.000000   0.000007
    33  H    0.041988  -0.010593   0.004834  -0.000735  -0.000248   0.003001
    34  H    0.040991   0.026146   0.007310   0.000152  -0.009438   0.009833
    35  H   -0.079364   0.244027   0.049313  -0.009795   0.007119  -0.037424
    36  H   -0.014513   0.021086   0.003599   0.000000   0.006295  -0.003842
    37  H   -0.000327   0.000214   0.000006   0.000000   0.000045   0.006250
    38  H   -0.012294   0.003024   0.003663   0.000002  -0.000345   0.006557
    39  H    0.000001   0.000000   0.000000   0.000000   0.000000  -0.000003
    40  H    0.000025  -0.000001   0.000000   0.000000   0.000000   0.001140
    41  H   -0.000021  -0.000001   0.000000   0.000000  -0.000001  -0.001246
    42  H    0.000023  -0.000014  -0.000002   0.000000   0.000003  -0.000034
    43  H    0.000200   0.000029   0.000005   0.000000   0.000003   0.000866
    44  H   -0.000061   0.000005   0.000000   0.000000  -0.000001  -0.000340
    45  H   -0.007073  -0.007125  -0.046807   0.000055   0.000007   0.000317
    46  H   -0.000035  -0.000032  -0.001438  -0.000002   0.000000   0.000000
    47  H    0.000165   0.000241   0.002894  -0.000001   0.000000  -0.000001
    48  H   -0.000288  -0.000061  -0.002072  -0.000002   0.000000   0.000000
              13         14         15         16         17         18
     1  C   -0.004135  -0.001733  -0.000453  -0.000006   0.000200   0.002225
     2  C   -0.034194  -0.012538  -0.006187   0.000803   0.003136   0.022999
     3  C   -0.003619  -0.005542   0.001348  -0.000438  -0.000666   0.000409
     4  C   -0.107035  -0.064117  -0.029910   0.002846   0.010131   0.075155
     5  C    0.102326   0.040134   0.032588  -0.004916  -0.018721  -0.181658
     6  C    0.202121  -0.067401   0.085415   0.009202  -0.055453  -0.325423
     7  C   -0.002885  -0.064439  -0.516080   0.133915   0.177943   0.101643
     8  C   -0.155399   0.039031  -0.022157  -0.040250  -0.007290   0.189443
     9  C   -0.219887  -0.069886  -0.068821   0.008817   0.043156   0.263380
    10  O   -0.000010  -0.000327   0.000010  -0.000003  -0.000018   0.000414
    11  O   -0.174886  -0.053124  -0.038849   0.001665  -0.003294   0.056673
    12  C    0.297239  -0.433426  -0.858591  -0.275623   0.101632   0.145232
    13  C   14.297391   0.290923  -0.154517  -2.561740  -4.895558  -2.294997
    14  C    0.290923  16.808873  -3.113555  -5.103437  -0.796250  -0.825412
    15  C   -0.154517  -3.113555  25.359846  -4.594481  -7.240732  -2.915968
    16  C   -2.561740  -5.103437  -4.594481  18.231819   1.960801  -2.283072
    17  C   -4.895558  -0.796250  -7.240732   1.960801  15.008741   2.517570
    18  C   -2.294997  -0.825412  -2.915968  -2.283072   2.517570  12.417822
    19  N    0.400487   0.007987   0.084979   0.128814  -0.326567  -0.221463
    20  C    0.153562  -0.118755   0.411123  -0.270694  -0.219660  -0.443417
    21  N    0.116639   0.100241  -0.048400   0.047008  -0.017607  -0.116766
    22  O   -0.076453   0.084533  -0.721860   0.454540   0.231282   0.004027
    23  C   -0.067132   0.143248  -0.004157  -0.013251  -0.125339  -0.119470
    24  O   -0.134612  -0.675791   0.691470   0.128729   0.021118  -0.021576
    25  C   -0.041173  -0.087535   0.247461  -0.244266  -0.078265   0.033365
    26  C    0.006262   0.000540   0.000326  -0.000040  -0.000074  -0.000493
    27  O    0.000002   0.000001   0.000000   0.000000   0.000000   0.000000
    28  N    0.000175   0.000034   0.000002   0.000001   0.000003   0.000019
    29  C    0.000037   0.000008   0.000000   0.000000   0.000000  -0.000004
    30  H    0.000000   0.000000   0.000000   0.000000   0.000000   0.000000
    31  H    0.000000   0.000000   0.000000   0.000000   0.000000   0.000000
    32  H   -0.000002   0.000000   0.000000   0.000000   0.000000  -0.000001
    33  H   -0.000048   0.000303   0.000015   0.000002  -0.000001   0.000068
    34  H   -0.000766  -0.000913  -0.000081  -0.000029  -0.000032  -0.000442
    35  H   -0.011263   0.008676   0.000115   0.001970   0.001555   0.008369
    36  H   -0.013796   0.245956   0.009838   0.077924  -0.005403  -0.004815
    37  H    0.190785  -0.046158   0.027700  -0.232761   0.235121   0.171874
    38  H   -0.055933  -0.009222  -0.004347  -0.000214   0.005963   0.044955
    39  H   -0.002572   0.007510   0.065142   0.085008  -0.129924  -0.013162
    40  H   -0.000504   0.001559  -0.047206  -0.084318   0.106313   0.000401
    41  H    0.004821  -0.010544  -0.017114  -0.108467   0.087188   0.040343
    42  H    0.009545   0.067903  -0.009290  -0.042974  -0.003006  -0.001790
    43  H    0.019958   0.090453  -0.027779  -0.045278  -0.018270  -0.015819
    44  H   -0.015996  -0.141826  -0.073112   0.164480   0.028170   0.014467
    45  H   -0.000019  -0.000004   0.000000   0.000000   0.000000   0.000007
    46  H    0.000000   0.000000   0.000000   0.000000   0.000000   0.000000
    47  H    0.000000   0.000000   0.000000   0.000000   0.000000   0.000000
    48  H    0.000000   0.000000   0.000000   0.000000   0.000000   0.000000
              19         20         21         22         23         24
     1  C   -0.000065  -0.000365  -0.000314   0.000000   0.000000   0.000000
     2  C   -0.000567  -0.006642  -0.005712   0.000000   0.000001  -0.000004
     3  C    0.000008   0.008512   0.008042   0.000000  -0.000002   0.000001
     4  C   -0.002732  -0.002221  -0.007627  -0.000006   0.000007  -0.000007
     5  C    0.010543   0.004834   0.061906   0.000003   0.000006   0.000082
     6  C    0.033009   0.017810   0.022252  -0.000053   0.000251   0.000627
     7  C   -0.010702  -0.470556   0.182233  -0.000205   0.002976  -0.001363
     8  C   -0.031515   0.082310  -0.103811  -0.000075  -0.000665  -0.000547
     9  C   -0.015283   0.034355  -0.064386  -0.000015  -0.000083  -0.000123
    10  O   -0.000002   0.000933   0.000895   0.000000   0.000000   0.000000
    11  O   -0.009563   0.078316  -0.148941   0.000018  -0.000056  -0.000108
    12  C   -0.115691  -0.303422   0.353331  -0.003267   0.016279  -0.001128
    13  C    0.400487   0.153562   0.116639  -0.076453  -0.067132  -0.134612
    14  C    0.007987  -0.118755   0.100241   0.084533   0.143248  -0.675791
[...]
 ,0.00047727,-0.00021509,-0.00123526,-0.00039830,-0.00041511,0.00007396
 ,-0.00009004,-0.00002977,-0.00004949,0.00000316,0.00001694,0.00000856,
 0.00001605,0.00000367,0.00000509,-0.00000980,-0.00000701,-0.00001097,0
 .00000569,-0.00000188,0.00000285,-0.00000824,-0.00002457,-0.00000293,0
 .00000042,0.00001070,-0.00001112,-0.00000654,-0.00000315,0.00001503,-0
 .00000146,0.00000016,-0.00002034,-0.00000173,0.00001038,0.00003590,-0.
 00004173,0.00000307,0.00002386,0.00001365,0.00001170,-0.00001318,-0.00
 000276,0.00000333,0.00000760,-0.00000390,0.00002870,-0.00000970,0.0000
 0706,-0.00001491,-0.02495129,-0.01682123,-0.00249843,0.00079196,-0.003
 03572,0.00694395,-0.18866264,-0.16975849,0.05912430,0.00920576,0.00462
 095,-0.00319608,-0.00001984,0.00003891,-0.00002480,-0.00006468,0.00004
 223,0.00008190,0.00005570,0.00002081,0.00006987,-0.00002155,-0.0007695
 4,-0.00139345,-0.00008550,-0.00003163,-0.00001984,-0.00002184,-0.00000
 757,0.00001667,-0.00000346,0.00000397,-0.00000267,-0.00000154,0.000002
 45,-0.00000118,-0.00000540,0.00000688,0.00000003,0.00000079,0.00000104
 ,-0.00000049,0.00000138,-0.00000203,-0.00000023,0.00000037,-0.00000010
 ,-0.00000020,-0.00000124,0.00000155,0.00000194,0.00000157,-0.00000306,
 0.,0.00000215,-0.00000014,0.00000003,0.20050164,0.18481819,0.00010553,
 0.00004185,-0.00001401,0.00069981,-0.00066726,0.00058411,-0.00110347,0
 .00096570,-0.00170623,-0.00005478,0.00102055,-0.00079158,-0.00098948,0
 .00096203,-0.00050371,-0.00004626,-0.00070710,0.00018883,-0.00012664,-
 0.00047080,-0.00009725,0.00047717,0.00020608,0.00027232,-0.00079203,0.
 00104072,-0.00035321,-0.00064212,-0.00116265,-0.00042656,0.00073888,0.
 00033508,0.00000523,-0.00057355,-0.00031995,0.00032167,0.00014101,0.00
 009413,-0.00001070,-0.00000024,-0.00000303,-0.00003259,0.00004959,-0.0
 0000462,-0.00008848,-0.00010314,-0.00006726,-0.00002248,0.00001505,0.0
 0000605,0.00001020,-0.00005234,-0.00002021,0.00006182,0.00008195,0.000
 04623,-0.00007910,-0.00011434,-0.00004762,0.00017329,0.00019261,0.0000
 5531,-0.00025812,0.00009834,0.00007959,0.00004039,-0.00004500,-0.00002
 890,0.00002538,0.00002653,0.00001593,0.00008998,-0.00003912,0.00001409
 ,-0.00003369,0.02196598,-0.00149065,0.00053361,-0.00231854,0.00743591,
 0.00187070,0.03084107,0.06851580,-0.04554479,-0.01541933,-0.01474393,0
 .00274133,-0.00008081,-0.00004350,-0.00006424,0.00006720,-0.00023540,0
 .00004570,-0.00000947,-0.00007336,0.00002213,-0.00005415,-0.00184134,-
 0.00101559,-0.00002135,0.00005175,0.00004374,0.00002506,0.00000800,0.0
 0002342,-0.00000978,-0.00000613,-0.00001909,0.00000407,0.00000330,0.00
 000002,0.00001693,0.00000605,-0.00001799,0.00000416,0.00000455,0.00000
 504,0.00000439,-0.00000018,-0.00000893,0.00000117,0.00000157,-0.000007
 83,-0.00000004,-0.00000140,0.00000809,0.00000152,-0.00000588,-0.000000
 04,0.00000783,0.00000064,-0.00000151,-0.03011670,-0.05905580,0.0466563
 2,-0.00000983,-0.00001176,-0.00004297,0.00009450,-0.00035421,-0.000106
 98,0.00034477,0.00102738,-0.00112385,0.00013335,0.00015762,0.00009156,
 -0.00006836,0.00006273,0.00001398,-0.00002312,-0.00005725,0.00000414,0
 .00003176,0.00000259,0.00000514,0.00001457,0.00000409,0.00001887,-0.00
 005678,0.00018827,-0.00003324,-0.00043309,-0.00006924,-0.00009157,-0.0
 0004427,-0.00004208,0.00000192,0.00004066,0.00002445,-0.00003557,-0.00
 000919,-0.00000362,0.00000328,0.00000200,0.00000081,0.00000179,0.00000
 133,-0.00000130,-0.00000542,-0.00000158,-0.00000084,-0.00000304,0.0000
 0060,0.00000045,0.00000415,-0.00000097,-0.00000164,-0.00000917,-0.0000
 0038,-0.00000006,0.00001401,0.00000176,-0.00000118,-0.00002023,-0.0000
 0867,-0.00000767,0.00003404,0.00000086,0.00000079,0.00000249,-0.000000
 03,0.00000041,-0.00000086,-0.00000017,0.00000022,0.00000641,-0.0000014
 3,0.00000142,-0.00000180,-0.00633332,-0.00361520,-0.00039846,0.0024462
 0,-0.00006119,0.00140889,-0.00606502,0.03193931,-0.01530767,-0.0492777
 4,0.00457330,-0.00030550,0.00000410,0.00002184,0.00000552,-0.00000371,
 0.00001545,0.00000800,0.00000495,0.00002166,0.00001279,0.00004831,-0.0
 0001672,-0.00004806,-0.00000622,-0.00000706,-0.00001125,-0.00000220,-0
 .00000080,-0.00000136,-0.00000003,0.00000059,0.00000110,-0.00000042,-0
 .00000003,-0.00000056,-0.00000394,0.00000026,0.00000213,0.00000007,0.,
 0.00000015,-0.00000016,0.00000010,-0.00000014,0.00000021,-0.00000033,0
 .00000001,0.00000018,0.00000007,0.00000046,0.00000033,-0.00000053,-0.0
 0000014,0.,-0.00000014,-0.00000018,0.00093648,0.00014186,0.00023426,0.
 05361558,0.00000166,-0.00001212,0.00001074,-0.00017780,0.00019602,-0.0
 0010641,0.00018093,-0.00022909,0.00013008,-0.00008894,-0.00012785,-0.0
 0006196,0.00005635,0.00004385,0.00003405,0.00001282,0.00000438,0.00002
 285,-0.00006930,-0.00005605,-0.00003174,0.00000429,0.00001770,-0.00000
 325,0.00001448,-0.00013956,0.00003421,0.00025740,0.00011558,0.00014830
 ,0.00014486,0.00010759,0.00000437,-0.00011606,-0.00007577,0.00006147,0
 .00003062,0.00001846,-0.00000227,-0.00000177,-0.00000158,-0.00000549,0
 .00001333,-0.00000015,-0.00002197,-0.00002272,-0.00001647,-0.00000731,
 0.00000298,0.00000433,0.00000597,-0.00001196,-0.00000654,0.00000912,0.
 00002252,0.00001640,-0.00001266,-0.00003343,-0.00001638,0.00003672,0.0
 0004116,0.00002558,-0.00005482,0.00002410,0.00002097,0.00000958,-0.000
 01081,-0.00000822,0.00000690,0.00000440,0.00000698,0.00002154,-0.00000
 756,-0.00000085,-0.00000598,-0.00053385,0.00030711,-0.00115182,0.00105
 046,0.00029302,0.00070399,-0.00053918,0.00013021,0.00082520,0.01191033
 ,-0.29881896,0.07292814,0.00000529,-0.00000907,0.00001221,-0.00001220,
 0.00004773,-0.00000898,0.00000898,-0.00000984,-0.00000472,0.00001419,-
 0.00004523,0.00000609,0.00000446,0.00001213,0.00000954,0.00000352,-0.0
 0000204,0.00000347,-0.00000160,-0.00000335,-0.00000368,0.00000228,-0.0
 0000007,-0.00000005,0.00000412,-0.00000180,-0.00000574,0.00000119,0.00
 000056,0.00000099,0.00000051,0.00000011,-0.00000163,0.00000050,0.00000
 059,-0.00000235,-0.00000003,-0.00000037,0.00000139,0.00000039,0.000000
 28,0.00000014,0.00000126,0.00000025,-0.00000070,0.00044653,0.00056490,
 0.00038901,-0.01258526,0.31966898,-0.00002712,0.00001270,-0.00002182,0
 .00006760,-0.00036271,-0.00005761,-0.00001192,0.00108763,-0.00063883,0
 .00016672,0.00013592,0.00010260,-0.00009776,0.00006504,-0.00006561,0.0
 0000492,-0.00005152,-0.00000666,0.00003772,0.00003249,0.00001748,0.000
 01276,-0.00000802,0.00000578,-0.00003180,0.00014886,-0.00002943,-0.000
 37004,-0.00004816,-0.00013413,-0.00006968,-0.00006704,-0.00001081,0.00
 005527,0.00004182,-0.00001963,-0.00001668,-0.00001037,-0.00000043,-0.0
 0000106,-0.00000136,0.00000413,-0.00000548,0.00000025,0.00001491,0.000
 01263,0.00001077,0.00000631,-0.00000129,-0.00000271,-0.00000423,0.0000
 0758,0.00000517,-0.00000270,-0.00001204,-0.00001037,0.00000041,0.00001
 497,0.00001041,-0.00000750,-0.00001885,-0.00001571,0.00001566,-0.00001
 381,-0.00001259,-0.00000789,0.00000507,0.00000472,-0.00000303,-0.00000
 100,-0.00000454,-0.00001659,0.00000386,0.00000006,0.00000433,-0.003773
 74,-0.00118485,-0.00029159,-0.00011650,0.00032854,0.00030373,-0.002205
 75,0.02376522,-0.01207042,-0.00344777,0.06636084,-0.06883759,-0.000001
 59,0.00001455,-0.00000108,0.00001052,-0.00003384,-0.00000874,-0.000010
 85,0.00001953,0.00000207,-0.00003024,0.00000605,-0.00000052,-0.0000176
 7,-0.00001105,-0.00000562,-0.00000507,-0.00000159,-0.00000077,-0.00000
 004,0.00000268,0.00000189,-0.00000075,0.00000022,0.00000031,-0.0000003
 8,0.00000056,0.00000059,-0.00000078,-0.00000053,-0.00000064,-0.0000002
 9,-0.00000039,0.00000102,-0.00000023,-0.00000018,0.00000139,-0.0000001
 1,0.00000004,-0.00000155,-0.00000050,0.00000025,0.00000009,-0.00000064
 ,0.00000005,0.00000027,0.00026968,-0.00009725,0.00091288,0.01059588,-0
 .07990179,0.07522357,-0.00000225,0.00003724,-0.00004819,0.00001591,-0.
 00026014,0.00027310,-0.00091727,0.00076734,0.00072131,0.00020518,0.000
 11449,0.00002847,-0.00005882,-0.00011992,-0.00006353,-0.00001142,0.000
 02335,-0.00003159,0.00006189,0.00007660,0.00003217,-0.00002787,-0.0000
 3560,-0.00001328,-0.00001272,0.00013406,-0.00000258,-0.00023259,-0.000
 06159,-0.00033283,-0.00017168,-0.00011626,-0.00000571,0.00013830,0.000
 08612,-0.00007238,-0.00003573,-0.00002316,0.00000236,-0.00000015,-0.00
 000114,0.00000847,-0.00001331,0.00000133,0.00002400,0.00002721,0.00001
 827,0.00000415,-0.00000379,-0.00000246,-0.00000232,0.00001257,0.000005
 65,-0.00001594,-0.00002084,-0.00001429,0.00001884,0.00002958,0.0000145
 2,-0.00004127,-0.00004637,-0.00002205,0.00006174,-0.00002379,-0.000020
 85,-0.00001012,0.00001005,0.00000817,-0.00000654,-0.00000462,-0.000006
 22,-0.00002123,0.00000796,-0.00000118,0.00000641,-0.00026325,-0.005114
 20,0.00154044,0.00152744,0.00160058,-0.00063772,-0.00465957,-0.0132572
 8,-0.03152177,-0.05194332,0.01934050,0.02813977,-0.00001083,0.00003364
 ,-0.00000949,0.00002762,-0.00004565,-0.00000442,-0.00001272,0.00002259
 ,-0.00000048,-0.00002811,0.00011275,0.00002005,-0.00000535,-0.00001441
 ,-0.00001092,-0.00000573,0.00000021,-0.00000466,0.00000130,0.00000320,
 0.00000455,-0.00000137,-0.00000029,-0.00000012,-0.00000425,-0.00000052
 ,0.00000403,-0.00000113,-0.00000103,-0.00000139,-0.00000094,-0.0000004
 1,0.00000222,-0.00000019,-0.00000054,0.00000231,-0.00000020,0.00000054
 ,-0.00000209,-0.00000029,0.00000071,0.,-0.00000159,-0.00000019,0.00000
 039,0.00005923,-0.00061100,-0.00182910,-0.00009308,-0.00051237,0.00095
 995,0.05839502,-0.00000255,0.00000947,0.00000306,0.00015651,-0.0000156
 6,0.00002377,0.00028836,-0.00041889,-0.00074233,-0.00006365,0.00004340
 ,-0.00001277,0.00003501,-0.00002071,0.00001683,-0.00001462,0.00001367,
 -0.00001284,0.00005087,0.00002300,0.00002762,-0.00002003,0.00000769,-0
 .00000823,-0.00000420,-0.00003330,-0.00001128,-0.00004642,0.00000343,0
 .00009450,-0.00008397,-0.00005147,0.00000002,0.00007083,0.00004106,-0.
 00003808,-0.00001757,-0.00001149,0.00000104,0.00000044,0.00000613,0.00
 000327,-0.00000160,-0.00000415,0.00000518,0.00000651,0.00000891,0.0000
 0973,0.00000043,-0.00000223,-0.00000432,0.00000724,0.00000398,-0.00000
 425,-0.00001496,-0.00000729,0.00000979,0.00002245,0.00000797,-0.000027
 24,-0.00002884,-0.00000878,0.00003631,-0.00001714,-0.00001267,-0.00000
 577,0.00000909,0.00000463,-0.00000465,-0.00000425,-0.00000185,-0.00001
 335,0.00000515,-0.00000004,0.00000580,0.00108658,0.00161506,0.00198048
 ,-0.00070794,0.00035940,-0.00130874,-0.00402033,0.00666154,0.00600598,
 0.01876420,-0.14227378,-0.12153993,0.00000379,-0.00000830,0.00000396,0
 .00002717,-0.00004192,0.00000616,-0.00001971,0.00000221,-0.00000717,0.
 00002861,0.00001983,0.00001574,0.00000603,-0.00000254,0.00000067,-0.00
 000307,0.00000052,-0.00000345,0.00000168,0.00000054,0.00000247,-0.0000
 0099,-0.00000063,0.00000012,-0.00000188,0.00000005,0.00000395,-0.00000
 076,-0.00000043,-0.00000008,-0.00000065,0.00000079,0.00000057,-0.00000
 032,-0.00000038,0.00000110,0.00000058,-0.00000023,-0.00000061,-0.00000
 039,0.00000006,-0.00000029,-0.00000108,-0.00000015,0.00000031,0.000119
 96,-0.00027339,-0.00064305,0.00461095,-0.01669526,-0.02459790,-0.01930
 227,0.14579648,-0.00004364,0.00004563,-0.00005724,0.00014975,-0.000486
 60,0.00030612,-0.00059811,0.00080661,-0.00005987,0.00020265,0.00013342
 ,0.00002177,-0.00001198,-0.00009039,-0.00003116,-0.00002053,0.00003927
 ,-0.00002066,0.00011118,0.00009679,0.00005274,-0.00004119,-0.00003236,
 -0.00001151,0.00003221,0.00012914,0.00002455,-0.00032669,-0.00000921,-
 0.00031964,-0.00023300,-0.00015353,-0.00000846,0.00019049,0.00012109,-
 0.00008646,-0.00005174,-0.00003530,-0.00000019,-0.00000105,0.00000087,
 0.00001176,-0.00001885,0.00000066,0.00003810,0.00004276,0.00003187,0.0
 0001687,-0.00000504,-0.00000534,-0.00001000,0.00002226,0.00001265,-0.0
 0001474,-0.00003759,-0.00002396,0.00001683,0.00005204,0.00002614,-0.00
 004977,-0.00007052,-0.00003215,0.00007263,-0.00004643,-0.00003816,-0.0
 0002025,0.00002112,0.00001403,-0.00001153,-0.00001075,-0.00000879,-0.0
 0004380,0.00001685,-0.00000388,0.00001552,-0.00160784,-0.00746377,0.00
 235804,0.00259233,0.00212271,0.00063974,-0.01188490,-0.00402834,-0.021
 49966,0.02676417,-0.11976000,-0.20866912,0.00000914,0.00004042,0.00000
 711,0.00002801,-0.00003526,-0.00002571,-0.00001938,0.00003077,0.000002
 23,-0.00001085,0.00013115,0.00001766,-0.00000024,-0.00001465,-0.000008
 93,-0.00000606,0.00000095,-0.00000571,0.00000329,0.00000351,0.00000672
 ,-0.00000184,-0.00000085,0.00000063,-0.00000254,-0.00000016,0.00000513
 ,-0.00000210,-0.00000192,-0.00000214,-0.00000171,0.00000011,0.00000372
 ,-0.00000070,-0.00000067,0.00000384,0.00000028,0.00000045,-0.00000369,
 -0.00000089,0.00000186,-0.00000010,-0.00000334,-0.00000030,0.00000091,
 0.00034774,-0.00010733,-0.00147987,-0.00039999,0.00559872,0.00953877,-
 0.01826936,0.13351066,0.23146718,-0.00000381,0.00001761,-0.00003484,0.
 00022925,-0.00022361,0.00003899,-0.00004627,0.00018131,-0.00038536,0.0
 0009192,0.00006191,0.00000464,0.00002251,-0.00001033,-0.00000952,0.000
 00750,0.00002278,-0.00003300,0.00004070,0.00005310,0.00003696,-0.00002
 036,-0.00002020,-0.00001129,0.00007650,0.00004342,0.00002177,-0.000198
 31,0.00001205,-0.00004780,-0.00009817,-0.00006199,-0.00001088,0.000077
 56,0.00004965,-0.00002407,-0.00002151,-0.00001494,-0.00000037,-0.00000
 153,-0.00000445,0.00000331,-0.00002163,0.00000817,0.00003595,0.0000350
 1,0.00001658,0.00000074,-0.00000740,-0.00000180,-0.00000637,0.00001224
 ,0.00000532,-0.00000474,-0.00001812,-0.00001445,0.00000102,0.00002638,
 0.00001648,-0.00001660,-0.00003266,-0.00001641,0.00001809,-0.00002087,
 -0.00001894,-0.00001080,0.00000837,0.00000658,-0.00000488,-0.00000508,
 -0.00000646,-0.00002504,0.00001056,-0.00000403,0.00000660,-0.00151664,
 -0.00506267,0.00190257,0.00278105,0.00132366,0.00048996,-0.02930145,-0
 .00802023,0.00375654,-0.23427907,-0.05530260,0.11013043,-0.00000847,0.
 00001738,-0.00000458,-0.00000939,0.00001784,0.00001145,0.00001640,0.00
 001121,0.00001766,-0.00003213,0.00007819,0.00005053,-0.00000429,-0.000
 00667,-0.00000031,-0.00000208,0.00000060,-0.00000074,0.00000157,0.0000
 0213,0.00000277,-0.00000108,-0.00000002,0.00000033,-0.00000037,0.00000
 070,0.00000186,-0.00000088,-0.00000087,-0.00000206,-0.00000043,-0.0000
 0082,0.00000280,-0.00000055,-0.00000006,0.00000213,-0.00000079,0.00000
 084,-0.00000220,-0.00000038,0.00000140,0.00000033,-0.00000151,-0.00000
 016,0.00000080,-0.00282519,0.00338245,-0.00125832,0.00472111,0.0004589
 3,-0.00193368,-0.00190411,-0.00092326,0.00314259,0.26222588,0.00000230
 ,0.00001657,0.00001877,-0.00000015,-0.00003466,0.00001450,-0.00061723,
 0.00013575,0.00018396,0.00002317,0.00006850,-0.00000325,-0.00001821,-0
 .00002501,-0.00003461,0.00000817,0.00000026,-0.00001653,0.00002110,0.0
 0002740,0.00001641,-0.00000512,-0.00000492,-0.00000885,-0.00001992,0.0
 0002884,-0.00005360,-0.00004340,-0.00004170,-0.00004916,-0.00005402,-0
 .00004135,-0.00000896,0.00004147,0.00002805,-0.00001071,-0.00001183,-0
 .00000814,-0.00000030,-0.00000116,-0.00000042,0.00000238,-0.00000801,0
 .00000101,0.00001666,0.00001344,0.00000948,0.00000497,-0.00000210,-0.0
 0000260,-0.00000563,0.00000708,0.00000462,0.00000043,-0.00001174,-0.00
 000869,-0.00000187,0.00001630,0.00000945,-0.00000716,-0.00001796,-0.00
 000981,0.00000947,-0.00001278,-0.00001144,-0.00000698,0.00000511,0.000
 00395,-0.00000279,-0.00000139,-0.00000424,-0.00001634,0.00000456,-0.00
 000029,0.00000416,0.00260724,0.00218182,0.00022391,-0.00130283,-0.0012
 8282,-0.00024153,0.00280551,0.00002014,-0.00240079,-0.05892621,-0.0652
 3853,0.03421998,-0.00001211,-0.00000609,-0.00001286,0.00002011,-0.0000
 4709,-0.00000263,-0.00000981,0.00000199,-0.00000590,-0.00002506,0.0000
 1469,0.00004867,-0.00000514,-0.00000486,0.00000263,-0.00000480,-0.0000
 0034,0.00000021,0.00000044,0.00000184,0.00000145,-0.00000086,0.0000000
 9,0.00000033,0.00000015,0.00000041,0.00000142,-0.00000071,-0.00000032,
 -0.00000068,-0.00000013,-0.00000027,0.00000098,-0.00000037,-0.00000007
 ,0.00000125,-0.00000026,0.00000013,-0.00000122,-0.00000049,0.00000018,
 0.00000006,-0.00000055,-0.00000002,0.00000045,0.00042883,0.00010325,0.
 00034009,-0.02595852,-0.00532705,0.01437009,0.01714319,0.00525571,-0.0
 1056657,0.06392470,0.06418655,-0.00001943,-0.00000519,-0.00000156,0.00
 018632,-0.00009006,0.00004768,0.00032135,-0.00036556,-0.00059218,-0.00
 001562,0.00002221,0.00000209,0.00001431,-0.00000981,-0.00001588,0.0000
 0278,0.00000995,-0.00002264,0.00001262,0.00001074,0.00000689,-0.000011
 80,-0.00000129,-0.00000315,0.00003528,0.00000206,0.00002797,-0.0001160
 1,0.00000152,0.00000725,-0.00002819,-0.00001839,0.00000076,0.00001954,
 0.00001272,-0.00001517,-0.00000487,-0.00000254,0.00000084,-0.00000018,
 0.00000222,0.00000279,0.00000761,-0.00000469,-0.00000954,-0.00000952,-
 0.00000115,0.00000413,0.00000338,-0.00000098,0.00000095,-0.00000046,0.
 00000117,-0.00000296,-0.00000199,-0.00000079,0.00000598,0.00000358,0.0
 0000003,-0.00000994,-0.00000665,-0.00000181,0.00001394,-0.00000023,0.0
 0000049,0.00000031,0.00000018,0.00000006,-0.00000034,0.00000145,0.0000
 0078,0.00000120,-0.00000240,0.00000163,0.00000010,-0.00117696,-0.00054
 562,0.00112959,0.00041558,0.00069717,-0.00098320,-0.02551428,-0.007889
 20,0.01164066,0.11862224,0.03502881,-0.11806112,0.00001336,0.00001137,
 0.00001265,0.00000525,0.00002835,-0.00000291,-0.00000268,0.00001106,-0
 .00000085,-0.00003401,0.00003027,0.00002267,-0.00000259,-0.00000351,-0
 .00000199,-0.00000048,0.00000002,-0.00000242,-0.00000059,0.00000041,0.
 00000067,-0.00000013,-0.00000012,-0.00000024,-0.00000097,-0.00000005,0
 .00000069,-0.00000012,0.00000004,0.00000076,-0.00000017,0.00000041,-0.
 00000076,0.00000021,-0.00000023,-0.00000018,0.00000033,-0.00000055,0.0
 0000011,-0.00000023,-0.00000035,-0.00000010,0.00000026,0.00000013,-0.0
 0000032,-0.00344313,0.00149486,-0.00205864,0.00547705,0.00038052,-0.00
 391276,0.02110428,0.00721721,-0.01218837,-0.11585332,-0.03602433,0.124
 95655||0.00000065,-0.00000041,0.00000586,-0.00000021,-0.00000192,0.000
 00362,-0.00000216,0.00000202,-0.00000318,0.00000279,-0.00000278,0.0000
 0066,0.00000177,0.00000447,0.00000243,-0.00000474,-0.00000315,-0.00000
 339,0.00000546,0.00000081,0.00000378,-0.00000062,0.00000282,0.00000091
 ,-0.00000470,0.00000067,-0.00000355,-0.00000150,0.00000027,0.00000078,
 -0.00000479,-0.00000325,0.00000227,0.00000234,0.00000001,-0.00000789,0
 .00000665,0.00000473,-0.00000227,-0.00000165,-0.00000225,-0.00000219,0
 .00000801,0.00000100,-0.00000321,0.00000099,-0.00000617,0.00000392,-0.
 00000270,-0.00000021,-0.00000584,-0.00000314,-0.00000060,0.00001229,-0
 .00000312,-0.00000415,-0.00000882,0.00001008,0.00001231,-0.00000198,-0
 .00000707,-0.00000552,0.00000526,-0.00000358,0.00000753,-0.00000100,0.
 00000251,-0.00000439,-0.00000028,-0.00000391,0.00000114,0.00000038,0.0
 0000425,-0.00000422,0.00000011,-0.00000149,-0.00001788,0.00000468,0.00
 000556,0.00000259,-0.00000102,-0.00001069,0.00002389,0.00001628,-0.000
 00106,-0.00000440,-0.00000572,0.00000082,0.00000069,-0.00000054,0.0000
 0027,-0.00000056,-0.00000261,-0.00000145,0.00000014,-0.00000225,0.0000
 0033,0.00000034,0.00000166,-0.00000008,0.00000071,0.00000091,0.0000002
 3,-0.00000061,-0.00000014,0.00000085,-0.00000019,0.00000036,-0.0000002
 7,-0.00000003,-0.00000084,-0.00000098,-0.00000157,0.00000008,0.0000011
 0,-0.00000055,-0.00000125,-0.00000032,0.00000021,-0.00000255,0.0000000
 5,0.00000125,-0.00000024,0.00000207,0.00000001,-0.00000102,0.00000023,
 0.00000032,-0.00000126,0.00000197,0.00000106,-0.00000194,0.00000449,-0
 .00000559,-0.00000777,-0.00000152,0.00000054,0.00000301,-0.00000123,0.
 00000038,0.00000162,-0.00000051,0.00000048,0.00000187|||@


 THE RARE EARTHS PERPLEX US IN OUR RESEARCHES,
 BAFFLE US IN OUR SPECULATIONS, AND HAUNT US IN OUR
 VERY DREAMS.  THEY STRETCH LIKE AN UNKNOWN BEFORE US,
 MOCKING, MYSTIFYING, AND MURMURING STRANGE REVELATIONS
 AND POSSIBILITIES.  -- SIR WILLIAM CROOKE, 1832-1919
 Job cpu time:       1 days 13 hours  7 minutes  7.0 seconds.
 File lengths (MBytes):  RWF=   3547 Int=      0 D2E=      0 Chk=     31 Scr=      1
 Normal termination of Gaussian 09 at Sat Jul 23 12:56:48 2022.
